 Entering Gaussian System, Link 0=/usr/local/shared/gaussian/x86_64_sse4/16-B01/g16/g16
 Initial command:
 /usr/local/shared/gaussian/x86_64_sse4/16-B01/g16/l1.exe "/scratch/sl884/TS2uncatalysed1a_freq_B3LYP_631pGd-1_sorted/Gau-10200.inp" -scrdir="/scratch/sl884/TS2uncatalysed1a_freq_B3LYP_631pGd-1_sorted/"
 Entering Link 1 = /usr/local/shared/gaussian/x86_64_sse4/16-B01/g16/l1.exe PID=     10214.
  
 Copyright (c) 1988-2017, Gaussian, Inc.  All Rights Reserved.
  
 This is part of the Gaussian(R) 16 program.  It is based on
 the Gaussian(R) 09 system (copyright 2009, Gaussian, Inc.),
 the Gaussian(R) 03 system (copyright 2003, Gaussian, Inc.),
 the Gaussian(R) 98 system (copyright 1998, Gaussian, Inc.),
 the Gaussian(R) 94 system (copyright 1995, Gaussian, Inc.),
 the Gaussian 92(TM) system (copyright 1992, Gaussian, Inc.),
 the Gaussian 90(TM) system (copyright 1990, Gaussian, Inc.),
 the Gaussian 88(TM) system (copyright 1988, Gaussian, Inc.),
 the Gaussian 86(TM) system (copyright 1986, Carnegie Mellon
 University), and the Gaussian 82(TM) system (copyright 1983,
 Carnegie Mellon University). Gaussian is a federally registered
 trademark of Gaussian, Inc.
  
 This software contains proprietary and confidential information,
 including trade secrets, belonging to Gaussian, Inc.
  
 This software is provided under written license and may be
 used, copied, transmitted, or stored only in accord with that
 written license.
  
 The following legend is applicable only to US Government
 contracts under FAR:
  
                    RESTRICTED RIGHTS LEGEND
  
 Use, reproduction and disclosure by the US Government is
 subject to restrictions as set forth in subparagraphs (a)
 and (c) of the Commercial Computer Software - Restricted
 Rights clause in FAR 52.227-19.
  
 Gaussian, Inc.
 340 Quinnipiac St., Bldg. 40, Wallingford CT 06492
  
  
 ---------------------------------------------------------------
 Warning -- This program may not be used in any manner that
 competes with the business of Gaussian, Inc. or will provide
 assistance to any competitor of Gaussian, Inc.  The licensee
 of this program is prohibited from giving any competitor of
 Gaussian, Inc. access to this program.  By using this program,
 the user acknowledges that Gaussian, Inc. is engaged in the
 business of creating and licensing software in the field of
 computational chemistry and represents and warrants to the
 licensee that it is not a competitor of Gaussian, Inc. and that
 it will not use this program in any manner prohibited above.
 ---------------------------------------------------------------
  

 Cite this work as:
 Gaussian 16, Revision B.01,
 M. J. Frisch, G. W. Trucks, H. B. Schlegel, G. E. Scuseria, 
 M. A. Robb, J. R. Cheeseman, G. Scalmani, V. Barone, 
 G. A. Petersson, H. Nakatsuji, X. Li, M. Caricato, A. V. Marenich, 
 J. Bloino, B. G. Janesko, R. Gomperts, B. Mennucci, H. P. Hratchian, 
 J. V. Ortiz, A. F. Izmaylov, J. L. Sonnenberg, D. Williams-Young, 
 F. Ding, F. Lipparini, F. Egidi, J. Goings, B. Peng, A. Petrone, 
 T. Henderson, D. Ranasinghe, V. G. Zakrzewski, J. Gao, N. Rega, 
 G. Zheng, W. Liang, M. Hada, M. Ehara, K. Toyota, R. Fukuda, 
 J. Hasegawa, M. Ishida, T. Nakajima, Y. Honda, O. Kitao, H. Nakai, 
 T. Vreven, K. Throssell, J. A. Montgomery, Jr., J. E. Peralta, 
 F. Ogliaro, M. J. Bearpark, J. J. Heyd, E. N. Brothers, K. N. Kudin, 
 V. N. Staroverov, T. A. Keith, R. Kobayashi, J. Normand, 
 K. Raghavachari, A. P. Rendell, J. C. Burant, S. S. Iyengar, 
 J. Tomasi, M. Cossi, J. M. Millam, M. Klene, C. Adamo, R. Cammi, 
 J. W. Ochterski, R. L. Martin, K. Morokuma, O. Farkas, 
 J. B. Foresman, and D. J. Fox, Gaussian, Inc., Wallingford CT, 2016.
 
 ******************************************
 Gaussian 16:  ES64L-G16RevB.01 20-Dec-2017
                16-Jan-2019 
 ******************************************
 %nproc=4
 Will use up to    4 processors via shared memory.
 %mem=4GB
 %chk=TS2uncatalysed1a_freq_B3LYP_631pGd-1_sorted.chk
 ------------------------------------------------------
 #p B3LYP/6-31+G* Int=Ultrafine freq=(hpmodes,intmodes)
 ------------------------------------------------------
 1/10=4,18=20,30=1,38=1/1,3;
 2/9=110,12=2,17=6,18=5,40=1/2;
 3/5=1,6=6,7=11,11=2,25=1,30=1,71=2,74=-5,75=-5,140=1/1,2,3;
 4//1;
 5/5=2,38=5,98=1/2;
 8/6=4,10=90,11=11/1;
 11/6=1,8=1,9=11,15=111,16=1/1,2,10;
 10/6=1/2;
 6/7=2,8=2,9=2,10=2,28=1/1;
 7/8=31,10=1,25=1/1,2,3,16;
 1/10=4,18=20,30=1/3;
 99//99;
 Leave Link    1 at Wed Jan 16 18:08:31 2019, MaxMem=   536870912 cpu:               0.2 elap:               0.1
 (Enter /usr/local/shared/gaussian/x86_64_sse4/16-B01/g16/l101.exe)
 -------------------------------------------
 TS2uncatalysed1a_freq_B3LYP_631pGd-1_sorted
 -------------------------------------------
 Symbolic Z-matrix:
 Charge =  0 Multiplicity = 1
 H                     4.20059  -1.70386  -1.67413 
 H                     3.12755   1.7729    1.96632 
 C                    -0.89739   0.85252  -0.60951 
 C                    -2.15561   0.65079  -1.22467 
 H                    -0.66359   1.77278  -0.08383 
 C                     0.10444  -0.15772  -0.72114 
 H                     2.89894   3.25991   0.99357 
 H                     3.97819   1.96382   0.39803 
 C                    -2.60328  -1.65598   0.17992 
 O                    -0.04912  -1.23817  -1.32109 
 P                     1.73159   0.02593   0.17017 
 O                     1.92095   1.63105   0.26214 
 O                     2.86576  -0.36288  -0.92168 
 O                     1.84016  -0.72821   1.45477 
 C                     3.0604    2.18113   0.95342 
 C                     3.2705   -1.73657  -1.10275 
 H                     3.44009  -2.21445  -0.13376 
 H                     2.50084  -2.27605  -1.66121 
 C                    -3.24325  -0.39777   0.05702 
 H                    -1.04305  -0.01089   2.59969 
 C                    -3.0284    1.85547  -1.53306 
 C                    -2.9442    0.34293   1.35719 
 H                    -3.7605    0.12891   2.06843 
 H                    -2.14644  -0.10085  -2.0117 
 H                    -4.21479  -0.31454  -0.42516 
 C                    -1.63828  -1.60026   1.20931 
 H                    -2.86042   1.42901   1.28293 
 H                    -2.75293  -2.4985   -0.4863 
 C                    -1.70382  -0.36364   1.81602 
 H                    -0.8938   -2.36015   1.41422 
 H                    -4.05247   1.56824  -1.79559 
 H                    -3.07241   2.56068  -0.69556 
 H                    -2.60839   2.39433  -2.39208 
 
 Add virtual bond connecting atoms C19        and C4         Dist= 3.74D+00.
 ITRead=  0  0  0  0  0  0  0  0  0  0  0  0  0  0  0  0  0  0  0  0
 ITRead=  0  0  0  0  0  0  0  0  0  0  0  0  0
 MicOpt= -1 -1 -1 -1 -1 -1 -1 -1 -1 -1 -1 -1 -1 -1 -1 -1 -1 -1 -1 -1
 MicOpt= -1 -1 -1 -1 -1 -1 -1 -1 -1 -1 -1 -1 -1
 NAtoms=     33 NQM=       33 NQMF=       0 NMMI=      0 NMMIF=      0
                NMic=       0 NMicF=      0.
                    Isotopes and Nuclear Properties:
 (Nuclear quadrupole moments (NQMom) in fm**2, nuclear magnetic moments (NMagM)
  in nuclear magnetons)

  Atom         1           2           3           4           5           6           7           8           9          10
 IAtWgt=           1           1          12          12           1          12           1           1          12          16
 AtmWgt=   1.0078250   1.0078250  12.0000000  12.0000000   1.0078250  12.0000000   1.0078250   1.0078250  12.0000000  15.9949146
 NucSpn=           1           1           0           0           1           0           1           1           0           0
 AtZEff=  -0.0000000  -0.0000000  -0.0000000  -0.0000000  -0.0000000  -0.0000000  -0.0000000  -0.0000000  -0.0000000  -0.0000000
 NQMom=    0.0000000   0.0000000   0.0000000   0.0000000   0.0000000   0.0000000   0.0000000   0.0000000   0.0000000   0.0000000
 NMagM=    2.7928460   2.7928460   0.0000000   0.0000000   2.7928460   0.0000000   2.7928460   2.7928460   0.0000000   0.0000000
 AtZNuc=   1.0000000   1.0000000   6.0000000   6.0000000   1.0000000   6.0000000   1.0000000   1.0000000   6.0000000   8.0000000

  Atom        11          12          13          14          15          16          17          18          19          20
 IAtWgt=          31          16          16          16          12          12           1           1          12           1
 AtmWgt=  30.9737634  15.9949146  15.9949146  15.9949146  12.0000000  12.0000000   1.0078250   1.0078250  12.0000000   1.0078250
 NucSpn=           1           0           0           0           0           0           1           1           0           1
 AtZEff=  -0.0000000  -0.0000000  -0.0000000  -0.0000000  -0.0000000  -0.0000000  -0.0000000  -0.0000000  -0.0000000  -0.0000000
 NQMom=    0.0000000   0.0000000   0.0000000   0.0000000   0.0000000   0.0000000   0.0000000   0.0000000   0.0000000   0.0000000
 NMagM=    1.1316000   0.0000000   0.0000000   0.0000000   0.0000000   0.0000000   2.7928460   2.7928460   0.0000000   2.7928460
 AtZNuc=  15.0000000   8.0000000   8.0000000   8.0000000   6.0000000   6.0000000   1.0000000   1.0000000   6.0000000   1.0000000

  Atom        21          22          23          24          25          26          27          28          29          30
 IAtWgt=          12          12           1           1           1          12           1           1          12           1
 AtmWgt=  12.0000000  12.0000000   1.0078250   1.0078250   1.0078250  12.0000000   1.0078250   1.0078250  12.0000000   1.0078250
 NucSpn=           0           0           1           1           1           0           1           1           0           1
 AtZEff=  -0.0000000  -0.0000000  -0.0000000  -0.0000000  -0.0000000  -0.0000000  -0.0000000  -0.0000000  -0.0000000  -0.0000000
 NQMom=    0.0000000   0.0000000   0.0000000   0.0000000   0.0000000   0.0000000   0.0000000   0.0000000   0.0000000   0.0000000
 NMagM=    0.0000000   0.0000000   2.7928460   2.7928460   2.7928460   0.0000000   2.7928460   2.7928460   0.0000000   2.7928460
 AtZNuc=   6.0000000   6.0000000   1.0000000   1.0000000   1.0000000   6.0000000   1.0000000   1.0000000   6.0000000   1.0000000

  Atom        31          32          33
 IAtWgt=           1           1           1
 AtmWgt=   1.0078250   1.0078250   1.0078250
 NucSpn=           1           1           1
 AtZEff=  -0.0000000  -0.0000000  -0.0000000
 NQMom=    0.0000000   0.0000000   0.0000000
 NMagM=    2.7928460   2.7928460   2.7928460
 AtZNuc=   1.0000000   1.0000000   1.0000000
 Leave Link  101 at Wed Jan 16 18:08:31 2019, MaxMem=   536870912 cpu:               1.0 elap:               0.3
 (Enter /usr/local/shared/gaussian/x86_64_sse4/16-B01/g16/l103.exe)

 GradGradGradGradGradGradGradGradGradGradGradGradGradGradGradGradGradGrad
 Berny optimization.
 Initialization pass.
                           ----------------------------
                           !    Initial Parameters    !
                           ! (Angstroms and Degrees)  !
 --------------------------                            --------------------------
 ! Name  Definition              Value          Derivative Info.                !
 --------------------------------------------------------------------------------
 ! R1    R(1,16)                 1.0921         calculate D2E/DX2 analytically  !
 ! R2    R(2,15)                 1.0941         calculate D2E/DX2 analytically  !
 ! R3    R(3,4)                  1.415          calculate D2E/DX2 analytically  !
 ! R4    R(3,5)                  1.0853         calculate D2E/DX2 analytically  !
 ! R5    R(3,6)                  1.4271         calculate D2E/DX2 analytically  !
 ! R6    R(4,19)                 1.9812         calculate D2E/DX2 analytically  !
 ! R7    R(4,21)                 1.5192         calculate D2E/DX2 analytically  !
 ! R8    R(4,24)                 1.0883         calculate D2E/DX2 analytically  !
 ! R9    R(6,10)                 1.2454         calculate D2E/DX2 analytically  !
 ! R10   R(6,11)                 1.8643         calculate D2E/DX2 analytically  !
 ! R11   R(7,15)                 1.0915         calculate D2E/DX2 analytically  !
 ! R12   R(8,15)                 1.0945         calculate D2E/DX2 analytically  !
 ! R13   R(9,19)                 1.4169         calculate D2E/DX2 analytically  !
 ! R14   R(9,26)                 1.4121         calculate D2E/DX2 analytically  !
 ! R15   R(9,28)                 1.0845         calculate D2E/DX2 analytically  !
 ! R16   R(11,12)                1.6189         calculate D2E/DX2 analytically  !
 ! R17   R(11,13)                1.6216         calculate D2E/DX2 analytically  !
 ! R18   R(11,14)                1.4936         calculate D2E/DX2 analytically  !
 ! R19   R(12,15)                1.4418         calculate D2E/DX2 analytically  !
 ! R20   R(13,16)                1.4435         calculate D2E/DX2 analytically  !
 ! R21   R(16,17)                1.0936         calculate D2E/DX2 analytically  !
 ! R22   R(16,18)                1.0933         calculate D2E/DX2 analytically  !
 ! R23   R(19,22)                1.5259         calculate D2E/DX2 analytically  !
 ! R24   R(19,25)                1.0878         calculate D2E/DX2 analytically  !
 ! R25   R(20,29)                1.0841         calculate D2E/DX2 analytically  !
 ! R26   R(21,31)                1.0955         calculate D2E/DX2 analytically  !
 ! R27   R(21,32)                1.0957         calculate D2E/DX2 analytically  !
 ! R28   R(21,33)                1.0976         calculate D2E/DX2 analytically  !
 ! R29   R(22,23)                1.1036         calculate D2E/DX2 analytically  !
 ! R30   R(22,27)                1.0918         calculate D2E/DX2 analytically  !
 ! R31   R(22,29)                1.4994         calculate D2E/DX2 analytically  !
 ! R32   R(26,29)                1.379          calculate D2E/DX2 analytically  !
 ! R33   R(26,30)                1.0834         calculate D2E/DX2 analytically  !
 ! A1    A(4,3,5)              121.5346         calculate D2E/DX2 analytically  !
 ! A2    A(4,3,6)              119.2939         calculate D2E/DX2 analytically  !
 ! A3    A(5,3,6)              119.1361         calculate D2E/DX2 analytically  !
 ! A4    A(3,4,19)             106.401          calculate D2E/DX2 analytically  !
 ! A5    A(3,4,21)             119.0807         calculate D2E/DX2 analytically  !
 ! A6    A(3,4,24)             113.9133         calculate D2E/DX2 analytically  !
 ! A7    A(19,4,21)            103.6272         calculate D2E/DX2 analytically  !
 ! A8    A(19,4,24)             96.1381         calculate D2E/DX2 analytically  !
 ! A9    A(21,4,24)            113.9339         calculate D2E/DX2 analytically  !
 ! A10   A(3,6,10)             124.421          calculate D2E/DX2 analytically  !
 ! A11   A(3,6,11)             120.3681         calculate D2E/DX2 analytically  !
 ! A12   A(10,6,11)            115.0493         calculate D2E/DX2 analytically  !
 ! A13   A(19,9,26)            109.6848         calculate D2E/DX2 analytically  !
 ! A14   A(19,9,28)            125.0474         calculate D2E/DX2 analytically  !
 ! A15   A(26,9,28)            124.9448         calculate D2E/DX2 analytically  !
 ! A16   A(6,11,12)            103.1157         calculate D2E/DX2 analytically  !
 ! A17   A(6,11,13)            105.3614         calculate D2E/DX2 analytically  !
 ! A18   A(6,11,14)            115.1441         calculate D2E/DX2 analytically  !
 ! A19   A(12,11,13)           101.1968         calculate D2E/DX2 analytically  !
 ! A20   A(12,11,14)           116.3129         calculate D2E/DX2 analytically  !
 ! A21   A(13,11,14)           114.0294         calculate D2E/DX2 analytically  !
 ! A22   A(11,12,15)           119.8652         calculate D2E/DX2 analytically  !
 ! A23   A(11,13,16)           120.5797         calculate D2E/DX2 analytically  !
 ! A24   A(2,15,7)             110.1068         calculate D2E/DX2 analytically  !
 ! A25   A(2,15,8)             110.1336         calculate D2E/DX2 analytically  !
 ! A26   A(2,15,12)            110.4877         calculate D2E/DX2 analytically  !
 ! A27   A(7,15,8)             109.8115         calculate D2E/DX2 analytically  !
 ! A28   A(7,15,12)            106.1286         calculate D2E/DX2 analytically  !
 ! A29   A(8,15,12)            110.0989         calculate D2E/DX2 analytically  !
 ! A30   A(1,16,13)            106.0171         calculate D2E/DX2 analytically  !
 ! A31   A(1,16,17)            110.1568         calculate D2E/DX2 analytically  !
 ! A32   A(1,16,18)            110.3085         calculate D2E/DX2 analytically  !
 ! A33   A(13,16,17)           110.3759         calculate D2E/DX2 analytically  !
 ! A34   A(13,16,18)           109.6505         calculate D2E/DX2 analytically  !
 ! A35   A(17,16,18)           110.251          calculate D2E/DX2 analytically  !
 ! A36   A(4,19,9)             106.1483         calculate D2E/DX2 analytically  !
 ! A37   A(4,19,22)            100.7616         calculate D2E/DX2 analytically  !
 ! A38   A(4,19,25)             99.3843         calculate D2E/DX2 analytically  !
 ! A39   A(9,19,22)            105.5814         calculate D2E/DX2 analytically  !
 ! A40   A(9,19,25)            120.6484         calculate D2E/DX2 analytically  !
 ! A41   A(22,19,25)           121.0352         calculate D2E/DX2 analytically  !
 ! A42   A(4,21,31)            112.1961         calculate D2E/DX2 analytically  !
 ! A43   A(4,21,32)            112.2258         calculate D2E/DX2 analytically  !
 ! A44   A(4,21,33)            109.1672         calculate D2E/DX2 analytically  !
 ! A45   A(31,21,32)           108.3219         calculate D2E/DX2 analytically  !
 ! A46   A(31,21,33)           107.3899         calculate D2E/DX2 analytically  !
 ! A47   A(32,21,33)           107.3127         calculate D2E/DX2 analytically  !
 ! A48   A(19,22,23)           108.0602         calculate D2E/DX2 analytically  !
 ! A49   A(19,22,27)           116.099          calculate D2E/DX2 analytically  !
 ! A50   A(19,22,29)           101.1929         calculate D2E/DX2 analytically  !
 ! A51   A(23,22,27)           107.067          calculate D2E/DX2 analytically  !
 ! A52   A(23,22,29)           108.8613         calculate D2E/DX2 analytically  !
 ! A53   A(27,22,29)           115.2188         calculate D2E/DX2 analytically  !
 ! A54   A(9,26,29)            108.8827         calculate D2E/DX2 analytically  !
 ! A55   A(9,26,30)            125.4383         calculate D2E/DX2 analytically  !
 ! A56   A(29,26,30)           125.3415         calculate D2E/DX2 analytically  !
 ! A57   A(20,29,22)           124.8967         calculate D2E/DX2 analytically  !
 ! A58   A(20,29,26)           125.5128         calculate D2E/DX2 analytically  !
 ! A59   A(22,29,26)           109.1025         calculate D2E/DX2 analytically  !
 ! D1    D(5,3,4,19)           -97.4495         calculate D2E/DX2 analytically  !
 ! D2    D(5,3,4,21)            18.9558         calculate D2E/DX2 analytically  !
 ! D3    D(5,3,4,24)           157.9286         calculate D2E/DX2 analytically  !
 ! D4    D(6,3,4,19)            84.7314         calculate D2E/DX2 analytically  !
 ! D5    D(6,3,4,21)          -158.8633         calculate D2E/DX2 analytically  !
 ! D6    D(6,3,4,24)           -19.8905         calculate D2E/DX2 analytically  !
 ! D7    D(4,3,6,10)            -0.8159         calculate D2E/DX2 analytically  !
 ! D8    D(4,3,6,11)          -175.9612         calculate D2E/DX2 analytically  !
 ! D9    D(5,3,6,10)          -178.6877         calculate D2E/DX2 analytically  !
 ! D10   D(5,3,6,11)             6.1669         calculate D2E/DX2 analytically  !
 ! D11   D(3,4,19,9)           -64.8744         calculate D2E/DX2 analytically  !
 ! D12   D(3,4,19,22)           44.9829         calculate D2E/DX2 analytically  !
 ! D13   D(3,4,19,25)          169.269          calculate D2E/DX2 analytically  !
 ! D14   D(21,4,19,9)          168.7776         calculate D2E/DX2 analytically  !
 ! D15   D(21,4,19,22)         -81.3651         calculate D2E/DX2 analytically  !
 ! D16   D(21,4,19,25)          42.921          calculate D2E/DX2 analytically  !
 ! D17   D(24,4,19,9)           52.2959         calculate D2E/DX2 analytically  !
 ! D18   D(24,4,19,22)         162.1532         calculate D2E/DX2 analytically  !
 ! D19   D(24,4,19,25)         -73.5608         calculate D2E/DX2 analytically  !
 ! D20   D(3,4,21,31)         -167.23           calculate D2E/DX2 analytically  !
 ! D21   D(3,4,21,32)          -44.9886         calculate D2E/DX2 analytically  !
 ! D22   D(3,4,21,33)           73.8518         calculate D2E/DX2 analytically  !
 ! D23   D(19,4,21,31)         -49.3726         calculate D2E/DX2 analytically  !
 ! D24   D(19,4,21,32)          72.8688         calculate D2E/DX2 analytically  !
 ! D25   D(19,4,21,33)        -168.2908         calculate D2E/DX2 analytically  !
 ! D26   D(24,4,21,31)          53.8052         calculate D2E/DX2 analytically  !
 ! D27   D(24,4,21,32)         176.0466         calculate D2E/DX2 analytically  !
 ! D28   D(24,4,21,33)         -65.113          calculate D2E/DX2 analytically  !
 ! D29   D(3,6,11,12)          -28.4339         calculate D2E/DX2 analytically  !
 ! D30   D(3,6,11,13)         -134.1444         calculate D2E/DX2 analytically  !
 ! D31   D(3,6,11,14)           99.3114         calculate D2E/DX2 analytically  !
 ! D32   D(10,6,11,12)         155.9856         calculate D2E/DX2 analytically  !
 ! D33   D(10,6,11,13)          50.2751         calculate D2E/DX2 analytically  !
 ! D34   D(10,6,11,14)         -76.2692         calculate D2E/DX2 analytically  !
 ! D35   D(26,9,19,4)           88.8513         calculate D2E/DX2 analytically  !
 ! D36   D(26,9,19,22)         -17.5612         calculate D2E/DX2 analytically  !
 ! D37   D(26,9,19,25)        -159.5019         calculate D2E/DX2 analytically  !
 ! D38   D(28,9,19,4)          -84.8782         calculate D2E/DX2 analytically  !
 ! D39   D(28,9,19,22)         168.7093         calculate D2E/DX2 analytically  !
 ! D40   D(28,9,19,25)          26.7686         calculate D2E/DX2 analytically  !
 ! D41   D(19,9,26,29)           4.0971         calculate D2E/DX2 analytically  !
 ! D42   D(19,9,26,30)        -169.5099         calculate D2E/DX2 analytically  !
 ! D43   D(28,9,26,29)         177.8345         calculate D2E/DX2 analytically  !
 ! D44   D(28,9,26,30)           4.2275         calculate D2E/DX2 analytically  !
 ! D45   D(6,11,12,15)         177.177          calculate D2E/DX2 analytically  !
 ! D46   D(13,11,12,15)        -73.9542         calculate D2E/DX2 analytically  !
 ! D47   D(14,11,12,15)         50.1691         calculate D2E/DX2 analytically  !
 ! D48   D(6,11,13,16)         -86.978          calculate D2E/DX2 analytically  !
 ! D49   D(12,11,13,16)        165.9082         calculate D2E/DX2 analytically  !
 ! D50   D(14,11,13,16)         40.246          calculate D2E/DX2 analytically  !
 ! D51   D(11,12,15,2)         -53.3903         calculate D2E/DX2 analytically  !
 ! D52   D(11,12,15,7)        -172.7353         calculate D2E/DX2 analytically  !
 ! D53   D(11,12,15,8)          68.4806         calculate D2E/DX2 analytically  !
 ! D54   D(11,13,16,1)        -165.2947         calculate D2E/DX2 analytically  !
 ! D55   D(11,13,16,17)        -46.0158         calculate D2E/DX2 analytically  !
 ! D56   D(11,13,16,18)         75.632          calculate D2E/DX2 analytically  !
 ! D57   D(4,19,22,23)         158.2816         calculate D2E/DX2 analytically  !
 ! D58   D(4,19,22,27)          38.0505         calculate D2E/DX2 analytically  !
 ! D59   D(4,19,22,29)         -87.4414         calculate D2E/DX2 analytically  !
 ! D60   D(9,19,22,23)         -91.4203         calculate D2E/DX2 analytically  !
 ! D61   D(9,19,22,27)         148.3486         calculate D2E/DX2 analytically  !
 ! D62   D(9,19,22,29)          22.8567         calculate D2E/DX2 analytically  !
 ! D63   D(25,19,22,23)         50.3389         calculate D2E/DX2 analytically  !
 ! D64   D(25,19,22,27)        -69.8922         calculate D2E/DX2 analytically  !
 ! D65   D(25,19,22,29)        164.6159         calculate D2E/DX2 analytically  !
 ! D66   D(19,22,29,20)        166.4821         calculate D2E/DX2 analytically  !
 ! D67   D(19,22,29,26)        -21.1762         calculate D2E/DX2 analytically  !
 ! D68   D(23,22,29,20)        -79.8422         calculate D2E/DX2 analytically  !
 ! D69   D(23,22,29,26)         92.4995         calculate D2E/DX2 analytically  !
 ! D70   D(27,22,29,20)         40.4037         calculate D2E/DX2 analytically  !
 ! D71   D(27,22,29,26)       -147.2547         calculate D2E/DX2 analytically  !
 ! D72   D(9,26,29,20)        -176.0823         calculate D2E/DX2 analytically  !
 ! D73   D(9,26,29,22)          11.6348         calculate D2E/DX2 analytically  !
 ! D74   D(30,26,29,20)         -2.4675         calculate D2E/DX2 analytically  !
 ! D75   D(30,26,29,22)       -174.7505         calculate D2E/DX2 analytically  !
 --------------------------------------------------------------------------------
 Trust Radius=3.00D-01 FncErr=1.00D-07 GrdErr=1.00D-07 EigMax=2.50D+02 EigMin=1.00D-04
 Number of steps in this run=      2 maximum allowed number of steps=      2.
 GradGradGradGradGradGradGradGradGradGradGradGradGradGradGradGradGradGrad

 Leave Link  103 at Wed Jan 16 18:08:32 2019, MaxMem=   536870912 cpu:               0.1 elap:               0.1
 (Enter /usr/local/shared/gaussian/x86_64_sse4/16-B01/g16/l202.exe)
                          Input orientation:                          
 ---------------------------------------------------------------------
 Center     Atomic      Atomic             Coordinates (Angstroms)
 Number     Number       Type             X           Y           Z
 ---------------------------------------------------------------------
      1          1           0        4.200585   -1.703858   -1.674129
      2          1           0        3.127550    1.772903    1.966320
      3          6           0       -0.897392    0.852518   -0.609513
      4          6           0       -2.155607    0.650794   -1.224672
      5          1           0       -0.663587    1.772779   -0.083827
      6          6           0        0.104443   -0.157718   -0.721140
      7          1           0        2.898938    3.259905    0.993570
      8          1           0        3.978186    1.963816    0.398031
      9          6           0       -2.603279   -1.655975    0.179915
     10          8           0       -0.049116   -1.238174   -1.321086
     11         15           0        1.731594    0.025934    0.170168
     12          8           0        1.920945    1.631046    0.262143
     13          8           0        2.865763   -0.362878   -0.921683
     14          8           0        1.840158   -0.728206    1.454769
     15          6           0        3.060404    2.181130    0.953420
     16          6           0        3.270495   -1.736568   -1.102745
     17          1           0        3.440087   -2.214448   -0.133758
     18          1           0        2.500842   -2.276054   -1.661214
     19          6           0       -3.243247   -0.397769    0.057019
     20          1           0       -1.043054   -0.010888    2.599693
     21          6           0       -3.028398    1.855465   -1.533060
     22          6           0       -2.944199    0.342925    1.357194
     23          1           0       -3.760496    0.128907    2.068426
     24          1           0       -2.146440   -0.100846   -2.011698
     25          1           0       -4.214793   -0.314536   -0.425159
     26          6           0       -1.638279   -1.600260    1.209307
     27          1           0       -2.860419    1.429005    1.282928
     28          1           0       -2.752928   -2.498504   -0.486303
     29          6           0       -1.703823   -0.363639    1.816021
     30          1           0       -0.893804   -2.360153    1.414218
     31          1           0       -4.052471    1.568242   -1.795594
     32          1           0       -3.072409    2.560677   -0.695564
     33          1           0       -2.608391    2.394325   -2.392078
 ---------------------------------------------------------------------
                    Distance matrix (angstroms):
                    1          2          3          4          5
     1  H    0.000000
     2  H    5.147052   0.000000
     3  C    5.801537   4.866434   0.000000
     4  C    6.793201   6.273221   1.414998   0.000000
     5  H    6.186779   4.309968   1.085307   2.187807   0.000000
     6  C    4.480750   4.482066   1.427134   2.452562   2.173213
     7  H    5.783584   1.791558   4.772579   6.105447   4.007981
     8  H    4.218429   1.794313   5.101116   6.479244   4.670625
     9  C    7.052116   6.913093   3.134611   2.737601   3.948205
    10  O    4.289692   5.474014   2.365777   2.831042   3.312736
    11  P    3.534053   2.868232   2.864038   4.176884   2.975378
    12  O    4.479675   2.092902   3.051051   4.448572   2.611434
    13  O    2.036210   3.601479   3.966859   5.131617   4.209435
    14  O    4.038999   2.859127   3.775464   5.004716   3.858878
    15  C    4.826713   1.094132   4.457815   5.856004   3.887254
    16  C    1.092070   4.664331   4.931321   5.929329   5.369424
    17  H    1.792150   4.517408   5.333512   6.380556   5.721941
    18  H    1.793516   5.472277   4.737302   5.517203   5.375389
    19  C    7.753282   6.996020   2.740532   1.981206   3.374279
    20  H    6.973339   4.580067   3.326513   4.037495   3.244494
    21  C    8.058962   7.081537   2.529828   1.519243   2.774787
    22  C    8.026592   6.267536   2.883928   2.717111   3.053230
    23  H    8.985797   7.082254   3.986519   3.700342   4.114043
    24  H    6.555023   6.866625   2.105979   1.088327   3.070181
    25  H    8.620251   7.999161   3.521527   2.410670   4.133335
    26  C    6.512854   5.887650   3.142155   3.355462   3.741606
    27  H    8.271445   6.036643   2.786960   2.718535   2.610033
    28  H    7.098855   7.670743   3.832433   3.289386   4.771917
    29  C    6.988517   5.284843   2.830651   3.237128   3.042334
    30  H    5.993447   5.792949   3.796940   4.197820   4.402075
    31  H    8.878870   8.108427   3.445805   2.183061   3.802173
    32  H    8.487655   6.793063   2.766932   2.183606   2.607188
    33  H    7.979518   7.230686   2.912426   2.146567   3.081656
                    6          7          8          9         10
     6  C    0.000000
     7  H    4.735988   0.000000
     8  H    4.556241   1.788656   0.000000
     9  C    3.223109   7.423093   7.514396   0.000000
    10  O    1.245352   5.855029   5.424690   2.991874   0.000000
    11  P    1.864344   3.535428   2.975648   4.649735   2.644378
    12  O    2.732435   2.035838   2.088407   5.592841   3.823634
    13  O    2.776184   4.098030   2.897004   5.726783   3.069558
    14  O    2.841257   4.151957   3.596504   4.714885   3.396291
    15  C    4.124569   1.091530   1.094535   6.884692   5.151129
    16  C    3.558409   5.431145   4.055366   6.012731   3.363909
    17  H    3.962534   5.615359   4.246203   6.077216   3.812794
    18  H    3.333739   6.152495   4.939588   5.461346   2.774017
    19  C    3.445313   7.209864   7.605424   1.416949   3.578816
    20  H    3.516567   5.368149   5.827489   3.316012   4.226896
    21  C    3.811406   6.594666   7.268636   3.930041   4.300193
    22  C    3.723484   6.540890   7.174029   2.344742   4.249066
    23  H    4.775101   7.436836   8.126765   2.844544   5.208843
    24  H    2.595236   6.766249   6.897874   2.725857   2.483793
    25  H    4.332205   8.086692   8.543620   2.182327   4.359892
    26  C    2.973993   6.652374   6.701156   1.412083   3.009889
    27  H    3.914637   6.050299   6.916327   3.286314   4.668850
    28  H    3.701216   8.203224   8.124176   1.084480   3.097724
    29  C    3.122405   5.915396   6.301823   2.270682   3.652986
    30  H    3.225984   6.793150   6.592847   2.222988   3.074772
    31  H    4.627453   7.678753   8.334262   4.049490   4.912024
    32  H    4.181234   6.244924   7.159824   4.332055   4.895186
    33  H    4.082208   6.522462   7.166104   4.797927   4.570773
                   11         12         13         14         15
    11  P    0.000000
    12  O    1.618857   0.000000
    13  O    1.621620   2.503968   0.000000
    14  O    1.493557   2.644797   2.613973   0.000000
    15  C    2.650300   1.441812   3.166366   3.194462   0.000000
    16  C    2.663632   3.876213   1.443473   3.098957   4.429482
    17  H    2.833837   4.153595   2.092603   2.700390   4.543921
    18  H    3.040535   4.393292   2.083342   3.541424   5.197683
    19  C    4.994134   5.552211   6.187009   5.282414   6.869518
    20  H    3.688173   4.116476   5.272839   3.184071   4.934929
    21  C    5.376402   5.269641   6.327398   6.269395   6.584994
    22  C    4.834517   5.150536   6.280692   4.903765   6.292638
    23  H    5.811802   6.147996   7.286282   5.698995   7.209683
    24  H    4.451490   4.971260   5.136046   5.320051   6.411752
    25  H    5.985804   6.473404   7.098109   6.353557   7.813918
    26  C    3.883344   4.899646   5.134065   3.594475   6.036722
    27  H    4.928836   4.893288   6.392207   5.174796   5.977492
    28  H    5.187936   6.281596   6.026620   5.291328   7.600435
    29  C    3.829189   4.419530   5.326926   3.580951   5.469716
    30  H    3.759493   5.017944   4.855912   3.184249   6.039151
    31  H    6.300662   6.318222   7.235669   7.110669   7.650209
    32  H    5.500260   5.168656   6.622703   6.290787   6.361965
    33  H    5.568649   5.304938   6.303221   6.658680   6.585822
                   16         17         18         19         20
    16  C    0.000000
    17  H    1.093648   0.000000
    18  H    1.093297   1.794185   0.000000
    19  C    6.750279   6.928468   6.282900   0.000000
    20  H    5.940768   5.694382   5.987112   3.384630   0.000000
    21  C    7.263878   7.769397   6.903504   2.766148   4.950203
    22  C    6.999858   7.037201   6.754133   1.525946   2.298552
    23  H    7.935437   7.886021   7.674530   2.142590   2.772414
    24  H    5.731053   6.261250   5.143112   2.360241   4.742413
    25  H    7.649237   7.892513   7.104586   1.087807   4.393388
    26  C    5.427728   5.288748   5.082215   2.312936   2.193985
    27  H    7.300712   7.414724   7.151123   2.233050   2.666454
    28  H    6.102636   6.209542   5.388135   2.224567   4.316859
    29  C    5.928572   5.804045   5.781669   2.337751   1.084062
    30  H    4.905644   4.604353   4.581373   3.348555   2.635654
    31  H    8.063972   8.556218   7.598854   2.819968   5.555969
    32  H    7.672323   8.095063   7.442283   3.057445   4.646498
    33  H    7.299860   7.932521   6.960665   3.767878   5.757873
                   21         22         23         24         25
    21  C    0.000000
    22  C    3.263194   0.000000
    23  H    4.060501   1.103628   0.000000
    24  H    2.198658   3.490385   4.393788   0.000000
    25  H    2.709960   2.285486   2.573129   2.615503   0.000000
    26  C    4.625478   2.345904   2.869130   3.589059   3.311041
    27  H    2.853046   1.091835   1.765616   3.701995   2.791384
    28  H    4.486494   3.392460   3.800674   2.905757   2.628784
    29  C    4.230280   1.499429   2.129839   3.862176   3.366047
    30  H    5.569055   3.393229   3.852445   4.290742   4.312404
    31  H    1.095512   3.559458   4.133713   2.542737   2.334372
    32  H    1.095747   3.024678   3.745212   3.110198   3.105642
    33  H    1.097583   4.286963   5.133767   2.565924   3.713115
                   26         27         28         29         30
    26  C    0.000000
    27  H    3.267337   0.000000
    28  H    2.219094   4.308951   0.000000
    29  C    1.378996   2.198971   3.310433   0.000000
    30  H    1.083360   4.271127   2.662229   2.191722   0.000000
    31  H    4.989705   3.304190   4.465588   4.721448   5.975982
    32  H    4.795692   2.289116   5.073576   4.090564   5.780317
    33  H    5.465144   3.808022   5.252870   5.112016   6.327145
                   31         32         33
    31  H    0.000000
    32  H    1.776377   0.000000
    33  H    1.767363   1.766676   0.000000
 Stoichiometry    C11H17O4P
 Framework group  C1[X(C11H17O4P)]
 Deg. of freedom    93
 Full point group                 C1      NOp   1
 Largest Abelian subgroup         C1      NOp   1
 Largest concise Abelian subgroup C1      NOp   1
                         Standard orientation:                         
 ---------------------------------------------------------------------
 Center     Atomic      Atomic             Coordinates (Angstroms)
 Number     Number       Type             X           Y           Z
 ---------------------------------------------------------------------
      1          1           0        4.200585   -1.703858   -1.674129
      2          1           0        3.127550    1.772903    1.966320
      3          6           0       -0.897392    0.852518   -0.609513
      4          6           0       -2.155607    0.650794   -1.224672
      5          1           0       -0.663587    1.772779   -0.083827
      6          6           0        0.104443   -0.157718   -0.721140
      7          1           0        2.898938    3.259905    0.993570
      8          1           0        3.978186    1.963816    0.398031
      9          6           0       -2.603279   -1.655975    0.179915
     10          8           0       -0.049116   -1.238174   -1.321086
     11         15           0        1.731594    0.025934    0.170168
     12          8           0        1.920945    1.631046    0.262143
     13          8           0        2.865763   -0.362878   -0.921683
     14          8           0        1.840158   -0.728206    1.454769
     15          6           0        3.060404    2.181130    0.953420
     16          6           0        3.270495   -1.736568   -1.102745
     17          1           0        3.440087   -2.214448   -0.133758
     18          1           0        2.500842   -2.276054   -1.661214
     19          6           0       -3.243247   -0.397769    0.057019
     20          1           0       -1.043054   -0.010888    2.599693
     21          6           0       -3.028398    1.855465   -1.533060
     22          6           0       -2.944199    0.342925    1.357194
     23          1           0       -3.760496    0.128907    2.068426
     24          1           0       -2.146440   -0.100846   -2.011698
     25          1           0       -4.214793   -0.314536   -0.425159
     26          6           0       -1.638279   -1.600260    1.209307
     27          1           0       -2.860419    1.429005    1.282928
     28          1           0       -2.752928   -2.498504   -0.486303
     29          6           0       -1.703823   -0.363639    1.816021
     30          1           0       -0.893804   -2.360153    1.414218
     31          1           0       -4.052471    1.568242   -1.795594
     32          1           0       -3.072409    2.560677   -0.695564
     33          1           0       -2.608391    2.394325   -2.392078
 ---------------------------------------------------------------------
 Rotational constants (GHZ):           0.7940999           0.3220703           0.3066038
 Leave Link  202 at Wed Jan 16 18:08:32 2019, MaxMem=   536870912 cpu:               0.4 elap:               0.2
 (Enter /usr/local/shared/gaussian/x86_64_sse4/16-B01/g16/l301.exe)
 Standard basis: 6-31+G(d) (6D, 7F)
 Ernie: Thresh=  0.10000D-02 Tol=  0.10000D-05 Strict=F.
 There are   342 symmetry adapted cartesian basis functions of A   symmetry.
 There are   342 symmetry adapted basis functions of A   symmetry.
   342 basis functions,   604 primitive gaussians,   342 cartesian basis functions
    65 alpha electrons       65 beta electrons
       nuclear repulsion energy      1341.8787945718 Hartrees.
 IExCor=  402 DFT=T Ex+Corr=B3LYP ExCW=0 ScaHFX=  0.200000
 ScaDFX=  0.800000  0.720000  1.000000  0.810000 ScalE2=  1.000000  1.000000
 IRadAn=      5 IRanWt=     -1 IRanGd=            0 ICorTp=0 IEmpDi=  4
 NAtoms=   33 NActive=   33 NUniq=   33 SFac= 1.00D+00 NAtFMM=   60 NAOKFM=F Big=F
 Integral buffers will be    131072 words long.
 Raffenetti 2 integral format.
 Two-electron integral symmetry is turned on.
 Leave Link  301 at Wed Jan 16 18:08:32 2019, MaxMem=   536870912 cpu:               0.6 elap:               0.2
 (Enter /usr/local/shared/gaussian/x86_64_sse4/16-B01/g16/l302.exe)
 NPDir=0 NMtPBC=     1 NCelOv=     1 NCel=       1 NClECP=     1 NCelD=      1
         NCelK=      1 NCelE2=     1 NClLst=     1 CellRange=     0.0.
 One-electron integrals computed using PRISM.
 One-electron integral symmetry used in STVInt
 NBasis=   342 RedAO= T EigKep=  4.21D-06  NBF=   342
 NBsUse=   342 1.00D-06 EigRej= -1.00D+00 NBFU=   342
 Precomputing XC quadrature grid using
 IXCGrd= 4 IRadAn=           5 IRanWt=          -1 IRanGd=           0 AccXCQ= 0.00D+00.
 Generated NRdTot=       0 NPtTot=           0 NUsed=           0 NTot=          32
 NSgBfM=   341   341   341   341   341 MxSgAt=    33 MxSgA2=    33.
 Leave Link  302 at Wed Jan 16 18:08:34 2019, MaxMem=   536870912 cpu:               5.2 elap:               1.5
 (Enter /usr/local/shared/gaussian/x86_64_sse4/16-B01/g16/l303.exe)
 DipDrv:  MaxL=1.
 Leave Link  303 at Wed Jan 16 18:08:34 2019, MaxMem=   536870912 cpu:               0.2 elap:               0.1
 (Enter /usr/local/shared/gaussian/x86_64_sse4/16-B01/g16/l401.exe)
 ExpMin= 3.48D-02 ExpMax= 1.94D+04 ExpMxC= 2.91D+03 IAcc=3 IRadAn=         5 AccDes= 0.00D+00
 Harris functional with IExCor=  402 and IRadAn=       5 diagonalized for initial guess.
 HarFok:  IExCor=  402 AccDes= 0.00D+00 IRadAn=         5 IDoV= 1 UseB2=F ITyADJ=14
 ICtDFT=  3500011 ScaDFX=  1.000000  1.000000  1.000000  1.000000
 FoFCou: FMM=F IPFlag=           0 FMFlag=      100000 FMFlg1=           0
         NFxFlg=           0 DoJE=T BraDBF=F KetDBF=T FulRan=T
         wScrn=  0.000000 ICntrl=       500 IOpCl=  0 I1Cent=   200000004 NGrid=           0
         NMat0=    1 NMatS0=      1 NMatT0=    0 NMatD0=    1 NMtDS0=    0 NMtDT0=    0
 Petite list used in FoFCou.
 Harris En= -1071.70683242141    
 JPrj=0 DoOrth=F DoCkMO=F.
 Leave Link  401 at Wed Jan 16 18:08:44 2019, MaxMem=   536870912 cpu:              39.7 elap:              10.1
 (Enter /usr/local/shared/gaussian/x86_64_sse4/16-B01/g16/l502.exe)
 Integral symmetry usage will be decided dynamically.
 Closed shell SCF:
 Using DIIS extrapolation, IDIIS=  1040.
 NGot=   536870912 LenX=   536631234 LenY=   536513829
 Requested convergence on RMS density matrix=1.00D-08 within 128 cycles.
 Requested convergence on MAX density matrix=1.00D-06.
 Requested convergence on             energy=1.00D-06.
 No special actions if energy rises.
 Fock matrices will be formed incrementally for  20 cycles.

 Cycle   1  Pass 1  IDiag  1:
 FoFJK:  IHMeth= 1 ICntrl=       0 DoSepK=F KAlg= 0 I1Cent=           0 FoldK=F
 IRaf= 900000000 NMat=       1 IRICut=       1 DoRegI=T DoRafI=F ISym2E= 0 IDoP0=0 IntGTp=1.
 FoFCou: FMM=F IPFlag=           0 FMFlag=      100000 FMFlg1=           0
         NFxFlg=           0 DoJE=F BraDBF=F KetDBF=F FulRan=T
         wScrn=  0.000000 ICntrl=         0 IOpCl=  0 I1Cent=           0 NGrid=           0
         NMat0=    1 NMatS0=      1 NMatT0=    0 NMatD0=    1 NMtDS0=    0 NMtDT0=    0
 Symmetry not used in FoFCou.
 E= -1071.12086639681    
 DIIS: error= 1.88D-02 at cycle   1 NSaved=   1.
 NSaved= 1 IEnMin= 1 EnMin= -1071.12086639681     IErMin= 1 ErrMin= 1.88D-02
 ErrMax= 1.88D-02  0.00D+00 EMaxC= 1.00D-01 BMatC= 5.88D-01 BMatP= 5.88D-01
 IDIUse=3 WtCom= 8.12D-01 WtEn= 1.88D-01
 Coeff-Com:  0.100D+01
 Coeff-En:   0.100D+01
 Coeff:      0.100D+01
 Gap=     0.120 Goal=   None    Shift=    0.000
 GapD=    0.120 DampG=1.000 DampE=0.500 DampFc=0.5000 IDamp=-1.
 Damping current iteration by 5.00D-01
 RMSDP=8.78D-02 MaxDP=1.36D+01              OVMax= 3.20D-01

 Cycle   2  Pass 1  IDiag  1:
 RMSU=  2.41D-02    CP:  1.66D+00
 E= -1071.22522747986     Delta-E=       -0.104361083053 Rises=F Damp=T
 DIIS: error= 9.03D-03 at cycle   2 NSaved=   2.
 NSaved= 2 IEnMin= 2 EnMin= -1071.22522747986     IErMin= 2 ErrMin= 9.03D-03
 ErrMax= 9.03D-03  0.00D+00 EMaxC= 1.00D-01 BMatC= 1.09D-01 BMatP= 5.88D-01
 IDIUse=3 WtCom= 9.10D-01 WtEn= 9.03D-02
 Coeff-Com:  0.252D+00 0.748D+00
 Coeff-En:   0.399D+00 0.601D+00
 Coeff:      0.266D+00 0.734D+00
 Gap=     0.236 Goal=   None    Shift=    0.000
 RMSDP=3.36D-02 MaxDP=5.34D+00 DE=-1.04D-01 OVMax= 2.34D-01

 Cycle   3  Pass 1  IDiag  1:
 RMSU=  6.75D-03    CP:  1.14D+00  3.50D-01
 E= -1071.56712092031     Delta-E=       -0.341893440448 Rises=F Damp=F
 DIIS: error= 8.70D-03 at cycle   3 NSaved=   3.
 NSaved= 3 IEnMin= 3 EnMin= -1071.56712092031     IErMin= 3 ErrMin= 8.70D-03
 ErrMax= 8.70D-03  0.00D+00 EMaxC= 1.00D-01 BMatC= 8.66D-02 BMatP= 1.09D-01
 IDIUse=3 WtCom= 9.13D-01 WtEn= 8.70D-02
 Coeff-Com:  0.974D-01 0.471D+00 0.432D+00
 Coeff-En:   0.000D+00 0.000D+00 0.100D+01
 Coeff:      0.889D-01 0.430D+00 0.481D+00
 Gap=     0.137 Goal=   None    Shift=    0.000
 RMSDP=9.21D-03 MaxDP=1.39D+00 DE=-3.42D-01 OVMax= 7.52D-02

 Cycle   4  Pass 1  IDiag  1:
 RMSU=  5.23D-03    CP:  1.01D+00  2.51D-01  9.59D-01
 E= -1071.62911292064     Delta-E=       -0.061992000328 Rises=F Damp=F
 DIIS: error= 3.09D-03 at cycle   4 NSaved=   4.
 NSaved= 4 IEnMin= 4 EnMin= -1071.62911292064     IErMin= 4 ErrMin= 3.09D-03
 ErrMax= 3.09D-03  0.00D+00 EMaxC= 1.00D-01 BMatC= 1.45D-02 BMatP= 8.66D-02
 IDIUse=3 WtCom= 9.69D-01 WtEn= 3.09D-02
 Coeff-Com:  0.936D-02 0.123D+00 0.301D+00 0.567D+00
 Coeff-En:   0.000D+00 0.000D+00 0.162D+00 0.838D+00
 Coeff:      0.907D-02 0.119D+00 0.297D+00 0.575D+00
 Gap=     0.137 Goal=   None    Shift=    0.000
 RMSDP=3.29D-03 MaxDP=5.04D-01 DE=-6.20D-02 OVMax= 3.87D-02

 Cycle   5  Pass 1  IDiag  1:
 RMSU=  1.38D-03    CP:  1.05D+00  2.88D-01  9.37D-01  6.36D-01
 E= -1071.63921915056     Delta-E=       -0.010106229926 Rises=F Damp=F
 DIIS: error= 1.18D-03 at cycle   5 NSaved=   5.
 NSaved= 5 IEnMin= 5 EnMin= -1071.63921915056     IErMin= 5 ErrMin= 1.18D-03
 ErrMax= 1.18D-03  0.00D+00 EMaxC= 1.00D-01 BMatC= 1.98D-03 BMatP= 1.45D-02
 IDIUse=3 WtCom= 9.88D-01 WtEn= 1.18D-02
 Coeff-Com: -0.283D-02 0.374D-01 0.147D+00 0.370D+00 0.448D+00
 Coeff-En:   0.000D+00 0.000D+00 0.000D+00 0.107D+00 0.893D+00
 Coeff:     -0.280D-02 0.369D-01 0.146D+00 0.367D+00 0.453D+00
 Gap=     0.134 Goal=   None    Shift=    0.000
 RMSDP=9.91D-04 MaxDP=7.54D-02 DE=-1.01D-02 OVMax= 1.72D-02

 Cycle   6  Pass 1  IDiag  1:
 RMSU=  7.25D-04    CP:  1.04D+00  2.88D-01  9.63D-01  7.10D-01  6.32D-01
 E= -1071.64082007372     Delta-E=       -0.001600923162 Rises=F Damp=F
 DIIS: error= 4.22D-04 at cycle   6 NSaved=   6.
 NSaved= 6 IEnMin= 6 EnMin= -1071.64082007372     IErMin= 6 ErrMin= 4.22D-04
 ErrMax= 4.22D-04  0.00D+00 EMaxC= 1.00D-01 BMatC= 2.14D-04 BMatP= 1.98D-03
 IDIUse=3 WtCom= 9.96D-01 WtEn= 4.22D-03
 Coeff-Com: -0.284D-02 0.787D-02 0.533D-01 0.157D+00 0.290D+00 0.495D+00
 Coeff-En:   0.000D+00 0.000D+00 0.000D+00 0.000D+00 0.806D-01 0.919D+00
 Coeff:     -0.282D-02 0.783D-02 0.531D-01 0.156D+00 0.289D+00 0.496D+00
 Gap=     0.134 Goal=   None    Shift=    0.000
 RMSDP=3.34D-04 MaxDP=2.14D-02 DE=-1.60D-03 OVMax= 3.46D-03

 Cycle   7  Pass 1  IDiag  1:
 RMSU=  2.00D-04    CP:  1.04D+00  2.90D-01  9.71D-01  7.16D-01  6.38D-01
                    CP:  6.46D-01
 E= -1071.64098384705     Delta-E=       -0.000163773328 Rises=F Damp=F
 DIIS: error= 1.69D-04 at cycle   7 NSaved=   7.
 NSaved= 7 IEnMin= 7 EnMin= -1071.64098384705     IErMin= 7 ErrMin= 1.69D-04
 ErrMax= 1.69D-04  0.00D+00 EMaxC= 1.00D-01 BMatC= 2.70D-05 BMatP= 2.14D-04
 IDIUse=3 WtCom= 9.98D-01 WtEn= 1.69D-03
 Coeff-Com: -0.142D-02 0.773D-03 0.166D-01 0.544D-01 0.131D+00 0.321D+00
 Coeff-Com:  0.477D+00
 Coeff-En:   0.000D+00 0.000D+00 0.000D+00 0.000D+00 0.000D+00 0.724D-01
 Coeff-En:   0.928D+00
 Coeff:     -0.142D-02 0.772D-03 0.166D-01 0.543D-01 0.131D+00 0.321D+00
 Coeff:      0.478D+00
 Gap=     0.134 Goal=   None    Shift=    0.000
 RMSDP=8.94D-05 MaxDP=8.45D-03 DE=-1.64D-04 OVMax= 1.33D-03

 Cycle   8  Pass 1  IDiag  1:
 RMSU=  5.47D-05    CP:  1.04D+00  2.90D-01  9.73D-01  7.16D-01  6.24D-01
                    CP:  6.08D-01  7.94D-01
 E= -1071.64100385475     Delta-E=       -0.000020007699 Rises=F Damp=F
 DIIS: error= 4.06D-05 at cycle   8 NSaved=   8.
 NSaved= 8 IEnMin= 8 EnMin= -1071.64100385475     IErMin= 8 ErrMin= 4.06D-05
 ErrMax= 4.06D-05  0.00D+00 EMaxC= 1.00D-01 BMatC= 1.00D-06 BMatP= 2.70D-05
 IDIUse=1 WtCom= 1.00D+00 WtEn= 0.00D+00
 Coeff-Com: -0.459D-03-0.315D-03 0.450D-02 0.155D-01 0.459D-01 0.130D+00
 Coeff-Com:  0.238D+00 0.567D+00
 Coeff:     -0.459D-03-0.315D-03 0.450D-02 0.155D-01 0.459D-01 0.130D+00
 Coeff:      0.238D+00 0.567D+00
 Gap=     0.134 Goal=   None    Shift=    0.000
 RMSDP=1.00D-04 MaxDP=1.18D-02 DE=-2.00D-05 OVMax= 9.55D-04

 Cycle   9  Pass 1  IDiag  1:
 RMSU=  2.61D-05    CP:  1.04D+00  2.88D-01  9.71D-01  7.14D-01  6.33D-01
                    CP:  6.64D-01  7.14D-01  4.93D-01
 E= -1071.64100451110     Delta-E=       -0.000000656345 Rises=F Damp=F
 DIIS: error= 2.87D-05 at cycle   9 NSaved=   9.
 NSaved= 9 IEnMin= 9 EnMin= -1071.64100451110     IErMin= 9 ErrMin= 2.87D-05
 ErrMax= 2.87D-05  0.00D+00 EMaxC= 1.00D-01 BMatC= 3.35D-07 BMatP= 1.00D-06
 IDIUse=1 WtCom= 1.00D+00 WtEn= 0.00D+00
 Coeff-Com: -0.743D-04-0.305D-03 0.642D-03 0.220D-02 0.112D-01 0.393D-01
 Coeff-Com:  0.832D-01 0.387D+00 0.477D+00
 Coeff:     -0.743D-04-0.305D-03 0.642D-03 0.220D-02 0.112D-01 0.393D-01
 Coeff:      0.832D-01 0.387D+00 0.477D+00
 Gap=     0.134 Goal=   None    Shift=    0.000
 RMSDP=3.13D-05 MaxDP=2.95D-03 DE=-6.56D-07 OVMax= 5.36D-04

 Cycle  10  Pass 1  IDiag  1:
 RMSU=  6.61D-06    CP:  1.04D+00  2.89D-01  9.72D-01  7.15D-01  6.35D-01
                    CP:  6.47D-01  7.41D-01  6.61D-01  5.80D-01
 E= -1071.64100489831     Delta-E=       -0.000000387211 Rises=F Damp=F
 DIIS: error= 6.30D-06 at cycle  10 NSaved=  10.
 NSaved=10 IEnMin=10 EnMin= -1071.64100489831     IErMin=10 ErrMin= 6.30D-06
 ErrMax= 6.30D-06  0.00D+00 EMaxC= 1.00D-01 BMatC= 3.18D-08 BMatP= 3.35D-07
 IDIUse=1 WtCom= 1.00D+00 WtEn= 0.00D+00
 Coeff-Com:  0.116D-04-0.134D-03-0.128D-03-0.599D-03 0.142D-02 0.808D-02
 Coeff-Com:  0.215D-01 0.166D+00 0.298D+00 0.506D+00
 Coeff:      0.116D-04-0.134D-03-0.128D-03-0.599D-03 0.142D-02 0.808D-02
 Coeff:      0.215D-01 0.166D+00 0.298D+00 0.506D+00
 Gap=     0.134 Goal=   None    Shift=    0.000
 RMSDP=5.64D-06 MaxDP=4.62D-04 DE=-3.87D-07 OVMax= 1.06D-04

 Cycle  11  Pass 1  IDiag  1:
 RMSU=  2.29D-06    CP:  1.04D+00  2.88D-01  9.72D-01  7.14D-01  6.35D-01
                    CP:  6.48D-01  7.37D-01  6.55D-01  6.54D-01  5.07D-01
 E= -1071.64100493141     Delta-E=       -0.000000033104 Rises=F Damp=F
 DIIS: error= 1.04D-06 at cycle  11 NSaved=  11.
 NSaved=11 IEnMin=11 EnMin= -1071.64100493141     IErMin=11 ErrMin= 1.04D-06
 ErrMax= 1.04D-06  0.00D+00 EMaxC= 1.00D-01 BMatC= 1.85D-09 BMatP= 3.18D-08
 IDIUse=1 WtCom= 1.00D+00 WtEn= 0.00D+00
 Coeff-Com:  0.905D-05-0.421D-04-0.107D-03-0.456D-03-0.257D-04 0.103D-02
 Coeff-Com:  0.451D-02 0.509D-01 0.119D+00 0.262D+00 0.563D+00
 Coeff:      0.905D-05-0.421D-04-0.107D-03-0.456D-03-0.257D-04 0.103D-02
 Coeff:      0.451D-02 0.509D-01 0.119D+00 0.262D+00 0.563D+00
 Gap=     0.134 Goal=   None    Shift=    0.000
 RMSDP=2.17D-06 MaxDP=3.36D-04 DE=-3.31D-08 OVMax= 2.14D-05

 Cycle  12  Pass 1  IDiag  1:
 RMSU=  7.00D-07    CP:  1.04D+00  2.88D-01  9.72D-01  7.15D-01  6.34D-01
                    CP:  6.48D-01  7.39D-01  6.66D-01  6.50D-01  5.63D-01
                    CP:  6.65D-01
 E= -1071.64100493315     Delta-E=       -0.000000001741 Rises=F Damp=F
 DIIS: error= 4.36D-07 at cycle  12 NSaved=  12.
 NSaved=12 IEnMin=12 EnMin= -1071.64100493315     IErMin=12 ErrMin= 4.36D-07
 ErrMax= 4.36D-07  0.00D+00 EMaxC= 1.00D-01 BMatC= 2.27D-10 BMatP= 1.85D-09
 IDIUse=1 WtCom= 1.00D+00 WtEn= 0.00D+00
 Coeff-Com:  0.248D-05-0.247D-05-0.506D-04-0.187D-03-0.239D-03-0.741D-03
 Coeff-Com: -0.622D-03 0.251D-02 0.231D-01 0.644D-01 0.287D+00 0.625D+00
 Coeff:      0.248D-05-0.247D-05-0.506D-04-0.187D-03-0.239D-03-0.741D-03
 Coeff:     -0.622D-03 0.251D-02 0.231D-01 0.644D-01 0.287D+00 0.625D+00
 Gap=     0.134 Goal=   None    Shift=    0.000
 RMSDP=8.56D-07 MaxDP=1.06D-04 DE=-1.74D-09 OVMax= 6.50D-06

 Cycle  13  Pass 1  IDiag  1:
 RMSU=  2.46D-07    CP:  1.04D+00  2.88D-01  9.72D-01  7.15D-01  6.34D-01
                    CP:  6.48D-01  7.39D-01  6.61D-01  6.59D-01  5.52D-01
                    CP:  7.61D-01  6.98D-01
 E= -1071.64100493335     Delta-E=       -0.000000000200 Rises=F Damp=F
 DIIS: error= 1.79D-07 at cycle  13 NSaved=  13.
 NSaved=13 IEnMin=13 EnMin= -1071.64100493335     IErMin=13 ErrMin= 1.79D-07
 ErrMax= 1.79D-07  0.00D+00 EMaxC= 1.00D-01 BMatC= 3.78D-11 BMatP= 2.27D-10
 IDIUse=1 WtCom= 1.00D+00 WtEn= 0.00D+00
 Coeff-Com: -0.146D-06 0.381D-05-0.165D-04-0.521D-04-0.116D-03-0.511D-03
 Coeff-Com: -0.760D-03-0.402D-02 0.108D-02 0.901D-02 0.105D+00 0.365D+00
 Coeff-Com:  0.526D+00
 Coeff:     -0.146D-06 0.381D-05-0.165D-04-0.521D-04-0.116D-03-0.511D-03
 Coeff:     -0.760D-03-0.402D-02 0.108D-02 0.901D-02 0.105D+00 0.365D+00
 Coeff:      0.526D+00
 Gap=     0.134 Goal=   None    Shift=    0.000
 RMSDP=1.89D-07 MaxDP=2.02D-05 DE=-2.00D-10 OVMax= 3.59D-06

 Cycle  14  Pass 1  IDiag  1:
 RMSU=  7.52D-08    CP:  1.04D+00  2.88D-01  9.72D-01  7.15D-01  6.34D-01
                    CP:  6.48D-01  7.39D-01  6.61D-01  6.60D-01  5.59D-01
                    CP:  7.44D-01  7.54D-01  8.08D-01
 E= -1071.64100493338     Delta-E=       -0.000000000029 Rises=F Damp=F
 DIIS: error= 5.59D-08 at cycle  14 NSaved=  14.
 NSaved=14 IEnMin=14 EnMin= -1071.64100493338     IErMin=14 ErrMin= 5.59D-08
 ErrMax= 5.59D-08  0.00D+00 EMaxC= 1.00D-01 BMatC= 2.49D-12 BMatP= 3.78D-11
 IDIUse=1 WtCom= 1.00D+00 WtEn= 0.00D+00
 Coeff-Com: -0.457D-06 0.234D-05-0.245D-05-0.446D-05-0.284D-04-0.162D-03
 Coeff-Com: -0.279D-03-0.222D-02-0.196D-02-0.344D-02 0.175D-01 0.985D-01
 Coeff-Com:  0.249D+00 0.643D+00
 Coeff:     -0.457D-06 0.234D-05-0.245D-05-0.446D-05-0.284D-04-0.162D-03
 Coeff:     -0.279D-03-0.222D-02-0.196D-02-0.344D-02 0.175D-01 0.985D-01
 Coeff:      0.249D+00 0.643D+00
 Gap=     0.134 Goal=   None    Shift=    0.000
 RMSDP=6.82D-08 MaxDP=8.67D-06 DE=-2.91D-11 OVMax= 8.48D-07

 Cycle  15  Pass 1  IDiag  1:
 RMSU=  2.70D-08    CP:  1.04D+00  2.88D-01  9.72D-01  7.15D-01  6.34D-01
                    CP:  6.48D-01  7.39D-01  6.61D-01  6.60D-01  5.58D-01
                    CP:  7.52D-01  7.60D-01  8.20D-01  8.86D-01
 E= -1071.64100493340     Delta-E=       -0.000000000021 Rises=F Damp=F
 DIIS: error= 2.63D-08 at cycle  15 NSaved=  15.
 NSaved=15 IEnMin=15 EnMin= -1071.64100493340     IErMin=15 ErrMin= 2.63D-08
 ErrMax= 2.63D-08  0.00D+00 EMaxC= 1.00D-01 BMatC= 4.78D-13 BMatP= 2.49D-12
 IDIUse=1 WtCom= 1.00D+00 WtEn= 0.00D+00
 Coeff-Com: -0.266D-06 0.867D-06 0.660D-06 0.383D-05-0.234D-05-0.319D-04
 Coeff-Com: -0.678D-04-0.815D-03-0.126D-02-0.348D-02-0.337D-02 0.971D-02
 Coeff-Com:  0.785D-01 0.360D+00 0.561D+00
 Coeff:     -0.266D-06 0.867D-06 0.660D-06 0.383D-05-0.234D-05-0.319D-04
 Coeff:     -0.678D-04-0.815D-03-0.126D-02-0.348D-02-0.337D-02 0.971D-02
 Coeff:      0.785D-01 0.360D+00 0.561D+00
 Gap=     0.134 Goal=   None    Shift=    0.000
 RMSDP=2.45D-08 MaxDP=1.73D-06 DE=-2.09D-11 OVMax= 3.96D-07

 Cycle  16  Pass 1  IDiag  1:
 RMSU=  1.19D-08    CP:  1.04D+00  2.88D-01  9.72D-01  7.15D-01  6.34D-01
                    CP:  6.48D-01  7.39D-01  6.61D-01  6.60D-01  5.57D-01
                    CP:  7.53D-01  7.62D-01  8.37D-01  9.19D-01  7.93D-01
 E= -1071.64100493335     Delta-E=        0.000000000053 Rises=F Damp=F
 DIIS: error= 8.33D-09 at cycle  16 NSaved=  16.
 NSaved=16 IEnMin=15 EnMin= -1071.64100493340     IErMin=16 ErrMin= 8.33D-09
 ErrMax= 8.33D-09  0.00D+00 EMaxC= 1.00D-01 BMatC= 7.65D-14 BMatP= 4.78D-13
 IDIUse=1 WtCom= 1.00D+00 WtEn= 0.00D+00
 Coeff-Com: -0.690D-07 0.946D-07 0.792D-06 0.268D-05 0.286D-05 0.762D-05
 Coeff-Com:  0.537D-05-0.104D-03-0.339D-03-0.145D-02-0.454D-02-0.107D-01
 Coeff-Com:  0.380D-02 0.919D-01 0.320D+00 0.602D+00
 Coeff:     -0.690D-07 0.946D-07 0.792D-06 0.268D-05 0.286D-05 0.762D-05
 Coeff:      0.537D-05-0.104D-03-0.339D-03-0.145D-02-0.454D-02-0.107D-01
 Coeff:      0.380D-02 0.919D-01 0.320D+00 0.602D+00
 Gap=     0.134 Goal=   None    Shift=    0.000
 RMSDP=8.69D-09 MaxDP=1.17D-06 DE= 5.28D-11 OVMax= 1.56D-07

 Cycle  17  Pass 1  IDiag  1:
 RMSU=  3.12D-09    CP:  1.04D+00  2.88D-01  9.72D-01  7.15D-01  6.34D-01
                    CP:  6.48D-01  7.39D-01  6.61D-01  6.60D-01  5.57D-01
                    CP:  7.54D-01  7.62D-01  8.48D-01  9.32D-01  8.72D-01
                    CP:  7.83D-01
 E= -1071.64100493336     Delta-E=       -0.000000000011 Rises=F Damp=F
 DIIS: error= 3.00D-09 at cycle  17 NSaved=  17.
 NSaved=17 IEnMin=15 EnMin= -1071.64100493340     IErMin=17 ErrMin= 3.00D-09
 ErrMax= 3.00D-09  0.00D+00 EMaxC= 1.00D-01 BMatC= 6.92D-15 BMatP= 7.65D-14
 IDIUse=1 WtCom= 1.00D+00 WtEn= 0.00D+00
 Coeff-Com:  0.923D-09-0.417D-07 0.377D-06 0.978D-06 0.165D-05 0.723D-05
 Coeff-Com:  0.953D-05 0.268D-04-0.386D-04-0.415D-03-0.200D-02-0.649D-02
 Coeff-Com: -0.588D-02 0.856D-02 0.988D-01 0.300D+00 0.608D+00
 Coeff:      0.923D-09-0.417D-07 0.377D-06 0.978D-06 0.165D-05 0.723D-05
 Coeff:      0.953D-05 0.268D-04-0.386D-04-0.415D-03-0.200D-02-0.649D-02
 Coeff:     -0.588D-02 0.856D-02 0.988D-01 0.300D+00 0.608D+00
 Gap=     0.134 Goal=   None    Shift=    0.000
 RMSDP=4.96D-09 MaxDP=7.70D-07 DE=-1.09D-11 OVMax= 5.18D-08

 SCF Done:  E(RB3LYP) =  -1071.64100493     A.U. after   17 cycles
            NFock= 17  Conv=0.50D-08     -V/T= 2.0078
 KE= 1.063364498349D+03 PE=-5.197216573424D+03 EE= 1.720332275570D+03
 Leave Link  502 at Wed Jan 16 18:15:51 2019, MaxMem=   536870912 cpu:            1706.8 elap:             427.0
 (Enter /usr/local/shared/gaussian/x86_64_sse4/16-B01/g16/l801.exe)
 DoSCS=F DFT=T ScalE2(SS,OS)=  1.000000  1.000000
 Range of M.O.s used for correlation:     1   342
 NBasis=   342 NAE=    65 NBE=    65 NFC=     0 NFV=     0
 NROrb=    342 NOA=    65 NOB=    65 NVA=   277 NVB=   277

 **** Warning!!: The largest alpha MO coefficient is  0.92879057D+02

 Leave Link  801 at Wed Jan 16 18:15:51 2019, MaxMem=   536870912 cpu:               0.1 elap:               0.1
 (Enter /usr/local/shared/gaussian/x86_64_sse4/16-B01/g16/l1101.exe)
 Using compressed storage, NAtomX=    33.
 Will process     34 centers per pass.
 Leave Link 1101 at Wed Jan 16 18:15:51 2019, MaxMem=   536870912 cpu:               1.8 elap:               0.5
 (Enter /usr/local/shared/gaussian/x86_64_sse4/16-B01/g16/l1102.exe)
 Symmetrizing basis deriv contribution to polar:
 IMax=3 JMax=2 DiffMx= 0.00D+00
 Leave Link 1102 at Wed Jan 16 18:15:52 2019, MaxMem=   536870912 cpu:               0.3 elap:               0.1
 (Enter /usr/local/shared/gaussian/x86_64_sse4/16-B01/g16/l1110.exe)
 Forming Gx(P) for the SCF density, NAtomX=    33.
 Integral derivatives from FoFJK, PRISM(SPDF).
 Do as many integral derivatives as possible in FoFJK.
 G2DrvN: MDV=     536868136.
 G2DrvN: will do    34 centers at a time, making    1 passes.
 Calling FoFCou, ICntrl=  3107 FMM=F I1Cent=   0 AccDes= 0.00D+00.
 FoFJK:  IHMeth= 1 ICntrl=    3107 DoSepK=F KAlg= 0 I1Cent=           0 FoldK=F
 IRaf=         0 NMat=       1 IRICut=       1 DoRegI=T DoRafI=F ISym2E= 0 IDoP0=0 IntGTp=1.
 FoFCou: FMM=F IPFlag=           0 FMFlag=      100000 FMFlg1=           0
         NFxFlg=           0 DoJE=F BraDBF=F KetDBF=F FulRan=T
         wScrn=  0.000000 ICntrl=      3107 IOpCl=  0 I1Cent=           0 NGrid=           0
         NMat0=    1 NMatS0=      1 NMatT0=    0 NMatD0=    1 NMtDS0=    0 NMtDT0=    0
 Symmetry not used in FoFCou.
 End of G2Drv F.D. properties file   721 does not exist.
 End of G2Drv F.D. properties file   722 does not exist.
 End of G2Drv F.D. properties file   788 does not exist.
 Leave Link 1110 at Wed Jan 16 18:31:10 2019, MaxMem=   536870912 cpu:            3671.8 elap:             918.2
 (Enter /usr/local/shared/gaussian/x86_64_sse4/16-B01/g16/l1002.exe)
 Minotr:  Closed shell wavefunction.
          IDoAtm=111111111111111111111111111111111
          Direct CPHF calculation.
          Differentiating once with respect to electric field.
                with respect to dipole field.
          Differentiating once with respect to nuclear coordinates.
          Requested convergence is 1.0D-08 RMS, and 1.0D-07 maximum.
          Secondary convergence is 1.0D-12 RMS, and 1.0D-12 maximum.
          NewPWx=T KeepS1=F KeepF1=F KeepIn=T MapXYZ=F SortEE=F KeepMc=T.
        10206 words used for storage of precomputed grid.
 Two-electron integrals replicated using symmetry.
          MDV=     536870912 using IRadAn=       1.
          Solving linear equations simultaneously, MaxMat=     384.
 FoF2E skips out because all densities are zero.
 CalDSu exits because no D1Ps are significant.
 FoFJK:  IHMeth= 1 ICntrl=       0 DoSepK=F KAlg= 0 I1Cent=           0 FoldK=F
 IRaf= 900000000 NMat=      99 IRICut=     247 DoRegI=T DoRafI=T ISym2E= 2 IDoP0=0 IntGTp=1.
 FoFCou: FMM=F IPFlag=           0 FMFlag=      100000 FMFlg1=           0
         NFxFlg=           0 DoJE=F BraDBF=F KetDBF=F FulRan=T
         wScrn=  0.000000 ICntrl=         0 IOpCl=  0 I1Cent=           0 NGrid=           0
         NMat0=   99 NMatS0=     99 NMatT0=    0 NMatD0=   99 NMtDS0=    0 NMtDT0=    0
 Integrals replicated using symmetry in FoFCou.
 Raff kept on since  88.79% of shell-pairs survive, threshold=   0.20 IRatSp=89.
          There are   102 degrees of freedom in the 1st order CPHF.  IDoFFX=6 NUNeed=     3.
     99 vectors produced by pass  0 Test12= 1.80D-14 1.00D-09 XBig12= 2.33D+02 9.26D+00.
 AX will form    99 AO Fock derivatives at one time.
     99 vectors produced by pass  1 Test12= 1.80D-14 1.00D-09 XBig12= 6.16D+01 1.25D+00.
     99 vectors produced by pass  2 Test12= 1.80D-14 1.00D-09 XBig12= 5.29D-01 6.51D-02.
     99 vectors produced by pass  3 Test12= 1.80D-14 1.00D-09 XBig12= 1.65D-03 3.45D-03.
     99 vectors produced by pass  4 Test12= 1.80D-14 1.00D-09 XBig12= 2.65D-06 1.35D-04.
     86 vectors produced by pass  5 Test12= 1.80D-14 1.00D-09 XBig12= 2.71D-09 3.76D-06.
     13 vectors produced by pass  6 Test12= 1.80D-14 1.00D-09 XBig12= 2.77D-12 1.35D-07.
      3 vectors produced by pass  7 Test12= 1.80D-14 1.00D-09 XBig12= 2.63D-15 4.56D-09.
 InvSVY:  IOpt=1 It=  1 EMax= 1.07D-14
 Solved reduced A of dimension   597 with   102 vectors.
 FullF1:  Do perturbations      1 to       3.
 Isotropic polarizability for W=    0.000000      173.96 Bohr**3.
 End of Minotr F.D. properties file   721 does not exist.
 End of Minotr F.D. properties file   722 does not exist.
 End of Minotr F.D. properties file   788 does not exist.
 Leave Link 1002 at Wed Jan 16 19:03:27 2019, MaxMem=   536870912 cpu:            7746.2 elap:            1937.0
 (Enter /usr/local/shared/gaussian/x86_64_sse4/16-B01/g16/l601.exe)
 Copying SCF densities to generalized density rwf, IOpCl= 0 IROHF=0.

 **********************************************************************

            Population analysis using the SCF Density.

 **********************************************************************

 Orbital symmetries:
       Occupied  (A) (A) (A) (A) (A) (A) (A) (A) (A) (A) (A) (A)
                 (A) (A) (A) (A) (A) (A) (A) (A) (A) (A) (A) (A)
                 (A) (A) (A) (A) (A) (A) (A) (A) (A) (A) (A) (A)
                 (A) (A) (A) (A) (A) (A) (A) (A) (A) (A) (A) (A)
                 (A) (A) (A) (A) (A) (A) (A) (A) (A) (A) (A) (A)
                 (A) (A) (A) (A) (A)
       Virtual   (A) (A) (A) (A) (A) (A) (A) (A) (A) (A) (A) (A)
                 (A) (A) (A) (A) (A) (A) (A) (A) (A) (A) (A) (A)
                 (A) (A) (A) (A) (A) (A) (A) (A) (A) (A) (A) (A)
                 (A) (A) (A) (A) (A) (A) (A) (A) (A) (A) (A) (A)
                 (A) (A) (A) (A) (A) (A) (A) (A) (A) (A) (A) (A)
                 (A) (A) (A) (A) (A) (A) (A) (A) (A) (A) (A) (A)
                 (A) (A) (A) (A) (A) (A) (A) (A) (A) (A) (A) (A)
                 (A) (A) (A) (A) (A) (A) (A) (A) (A) (A) (A) (A)
                 (A) (A) (A) (A) (A) (A) (A) (A) (A) (A) (A) (A)
                 (A) (A) (A) (A) (A) (A) (A) (A) (A) (A) (A) (A)
                 (A) (A) (A) (A) (A) (A) (A) (A) (A) (A) (A) (A)
                 (A) (A) (A) (A) (A) (A) (A) (A) (A) (A) (A) (A)
                 (A) (A) (A) (A) (A) (A) (A) (A) (A) (A) (A) (A)
                 (A) (A) (A) (A) (A) (A) (A) (A) (A) (A) (A) (A)
                 (A) (A) (A) (A) (A) (A) (A) (A) (A) (A) (A) (A)
                 (A) (A) (A) (A) (A) (A) (A) (A) (A) (A) (A) (A)
                 (A) (A) (A) (A) (A) (A) (A) (A) (A) (A) (A) (A)
                 (A) (A) (A) (A) (A) (A) (A) (A) (A) (A) (A) (A)
                 (A) (A) (A) (A) (A) (A) (A) (A) (A) (A) (A) (A)
                 (A) (A) (A) (A) (A) (A) (A) (A) (A) (A) (A) (A)
                 (A) (A) (A) (A) (A) (A) (A) (A) (A) (A) (A) (A)
                 (A) (A) (A) (A) (A) (A) (A) (A) (A) (A) (A) (A)
                 (A) (A) (A) (A) (A) (A) (A) (A) (A) (A) (A) (A)
                 (A)
 The electronic state is 1-A.
 Alpha  occ. eigenvalues --  -77.20723 -19.18093 -19.17353 -19.13342 -19.10732
 Alpha  occ. eigenvalues --  -10.26282 -10.24470 -10.23320 -10.22471 -10.22270
 Alpha  occ. eigenvalues --  -10.22071 -10.21673 -10.21247 -10.20257 -10.19909
 Alpha  occ. eigenvalues --  -10.19079  -6.65640  -4.82099  -4.81963  -4.81713
 Alpha  occ. eigenvalues --   -1.07078  -1.02774  -1.01987  -0.95342  -0.88514
 Alpha  occ. eigenvalues --   -0.80614  -0.73828  -0.72800  -0.72298  -0.71275
 Alpha  occ. eigenvalues --   -0.69325  -0.62862  -0.58547  -0.56857  -0.54807
 Alpha  occ. eigenvalues --   -0.53503  -0.52565  -0.51088  -0.50144  -0.47383
 Alpha  occ. eigenvalues --   -0.46809  -0.45766  -0.44976  -0.44477  -0.44183
 Alpha  occ. eigenvalues --   -0.42533  -0.41847  -0.40274  -0.40124  -0.39663
 Alpha  occ. eigenvalues --   -0.39360  -0.38509  -0.38419  -0.37792  -0.36057
 Alpha  occ. eigenvalues --   -0.35389  -0.34230  -0.32155  -0.31900  -0.31295
 Alpha  occ. eigenvalues --   -0.29138  -0.28458  -0.28033  -0.23882  -0.22037
 Alpha virt. eigenvalues --   -0.08624  -0.01215  -0.00505   0.00468   0.01197
 Alpha virt. eigenvalues --    0.01474   0.01977   0.02565   0.02704   0.03859
 Alpha virt. eigenvalues --    0.04178   0.04245   0.04325   0.05084   0.05958
 Alpha virt. eigenvalues --    0.06413   0.06876   0.07063   0.07870   0.08118
 Alpha virt. eigenvalues --    0.08584   0.08772   0.09618   0.10036   0.10095
 Alpha virt. eigenvalues --    0.10611   0.11242   0.11534   0.11843   0.12295
 Alpha virt. eigenvalues --    0.12903   0.13117   0.13577   0.13992   0.14313
 Alpha virt. eigenvalues --    0.14778   0.15193   0.15449   0.15855   0.16385
 Alpha virt. eigenvalues --    0.16867   0.17345   0.17673   0.18282   0.18818
 Alpha virt. eigenvalues --    0.19129   0.19278   0.19651   0.20165   0.20443
 Alpha virt. eigenvalues --    0.20627   0.20755   0.21689   0.22029   0.22119
 Alpha virt. eigenvalues --    0.22306   0.22819   0.23287   0.24116   0.24388
 Alpha virt. eigenvalues --    0.24680   0.25470   0.25877   0.26379   0.26714
 Alpha virt. eigenvalues --    0.27242   0.27679   0.28227   0.28822   0.29169
 Alpha virt. eigenvalues --    0.29970   0.30402   0.30511   0.31613   0.31866
 Alpha virt. eigenvalues --    0.32564   0.33229   0.34121   0.34603   0.35260
 Alpha virt. eigenvalues --    0.35827   0.36021   0.36777   0.37308   0.37951
 Alpha virt. eigenvalues --    0.38296   0.38813   0.39299   0.40851   0.41583
 Alpha virt. eigenvalues --    0.41971   0.42711   0.43569   0.44057   0.44538
 Alpha virt. eigenvalues --    0.45170   0.46211   0.47571   0.48292   0.51256
 Alpha virt. eigenvalues --    0.57057   0.60581   0.62421   0.63153   0.63760
 Alpha virt. eigenvalues --    0.66131   0.67142   0.67518   0.67980   0.70297
 Alpha virt. eigenvalues --    0.71432   0.71984   0.72393   0.72554   0.72641
 Alpha virt. eigenvalues --    0.73329   0.75312   0.76355   0.76784   0.78053
 Alpha virt. eigenvalues --    0.80140   0.80271   0.81057   0.83082   0.83522
 Alpha virt. eigenvalues --    0.84818   0.86439   0.86734   0.87819   0.90001
 Alpha virt. eigenvalues --    0.91985   0.92901   0.94579   0.94716   0.95304
 Alpha virt. eigenvalues --    0.95931   0.97516   0.98036   0.98683   0.99364
 Alpha virt. eigenvalues --    0.99699   1.00133   1.01900   1.02205   1.03314
 Alpha virt. eigenvalues --    1.03822   1.04309   1.07395   1.08942   1.10053
 Alpha virt. eigenvalues --    1.10972   1.11899   1.12840   1.13850   1.15433
 Alpha virt. eigenvalues --    1.16581   1.18028   1.18827   1.20508   1.23859
 Alpha virt. eigenvalues --    1.25270   1.25825   1.26399   1.28220   1.29284
 Alpha virt. eigenvalues --    1.29620   1.31304   1.32156   1.34689   1.35713
 Alpha virt. eigenvalues --    1.36631   1.37328   1.38895   1.39602   1.41218
 Alpha virt. eigenvalues --    1.43000   1.43916   1.44907   1.46810   1.47954
 Alpha virt. eigenvalues --    1.49108   1.51027   1.51953   1.53250   1.55928
 Alpha virt. eigenvalues --    1.56400   1.58427   1.61726   1.63579   1.64389
 Alpha virt. eigenvalues --    1.65682   1.67009   1.69887   1.72424   1.72748
 Alpha virt. eigenvalues --    1.73691   1.76798   1.78587   1.82420   1.84684
 Alpha virt. eigenvalues --    1.86553   1.87523   1.88903   1.91726   1.93083
 Alpha virt. eigenvalues --    1.94328   1.95551   1.97646   1.98642   2.01985
 Alpha virt. eigenvalues --    2.02521   2.04532   2.04713   2.05944   2.06474
 Alpha virt. eigenvalues --    2.07610   2.09226   2.10385   2.11348   2.11964
 Alpha virt. eigenvalues --    2.13474   2.15661   2.17053   2.18285   2.20094
 Alpha virt. eigenvalues --    2.21599   2.24163   2.25388   2.27414   2.28143
 Alpha virt. eigenvalues --    2.28589   2.32240   2.34361   2.35489   2.36134
 Alpha virt. eigenvalues --    2.37577   2.38405   2.39419   2.40627   2.41586
 Alpha virt. eigenvalues --    2.43091   2.48426   2.52100   2.55880   2.60698
 Alpha virt. eigenvalues --    2.64298   2.64803   2.67432   2.69450   2.71350
 Alpha virt. eigenvalues --    2.73137   2.73259   2.79996   2.81035   2.85153
 Alpha virt. eigenvalues --    2.88493   2.93819   2.96498   2.98652   3.01978
 Alpha virt. eigenvalues --    3.23201   3.58826   4.21550   4.24168   4.25232
 Alpha virt. eigenvalues --    4.27285   4.30950   4.34610   4.35367   4.39458
 Alpha virt. eigenvalues --    4.40825   4.45304   4.53202   4.57428   4.62129
 Alpha virt. eigenvalues --    4.64888   4.69388
          Condensed to atoms (all electrons):
               1          2          3          4          5          6
     1  H    0.527811  -0.000001   0.005432  -0.000221  -0.000000  -0.011224
     2  H   -0.000001   0.494933  -0.000288  -0.000929   0.000005  -0.000944
     3  C    0.005432  -0.000288  25.370579  -8.409871   0.206854 -13.967322
     4  C   -0.000221  -0.000929  -8.409871  15.312694   0.061137   2.054106
     5  H   -0.000000   0.000005   0.206854   0.061137   0.503922   0.052911
     6  C   -0.011224  -0.000944 -13.967322   2.054106   0.052911  20.931952
     7  H   -0.000000  -0.030573   0.001212  -0.000071  -0.000014   0.001133
     8  H    0.000007  -0.035438  -0.002489   0.000556  -0.000006   0.000620
     9  C   -0.000036  -0.000071  -0.949035   0.895654   0.029457   0.330370
    10  O    0.001369  -0.000015   0.099381   0.020666   0.007100   0.069869
    11  P   -0.010244  -0.001080   0.596013  -0.573625   0.004853  -0.398194
    12  O    0.000217  -0.054764  -0.097141   0.120926  -0.001949   0.049551
    13  O   -0.054706  -0.001210   0.340392  -0.046795  -0.000144  -0.457036
    14  O   -0.000039   0.008024   0.079254   0.048685   0.000045  -0.261348
    15  C    0.001874   0.393535  -0.053495   0.033217   0.000305   0.043144
    16  C    0.403191  -0.000641  -0.155421   0.014661  -0.000428   0.118048
    17  H   -0.031007  -0.000005   0.002668   0.000195   0.000000   0.002728
    18  H   -0.031677   0.000000  -0.026720   0.000493  -0.000000   0.047384
    19  C   -0.000010   0.000091   0.941813  -1.455432  -0.032867   0.347777
    20  H    0.000000  -0.000002   0.000174   0.018093  -0.000213  -0.022380
    21  C    0.000027   0.000013   1.644781  -2.206548  -0.049045  -1.697891
    22  C    0.000003   0.000281  -0.843543   1.032507   0.005703  -0.288869
    23  H    0.000000   0.000000   0.023977  -0.041893   0.000009   0.010793
    24  H   -0.000000   0.000000  -0.070255   0.375457   0.003860   0.059136
    25  H    0.000000   0.000000   0.078368  -0.096160  -0.000080  -0.012762
    26  C    0.000257  -0.001170   0.782862  -0.029929  -0.027035  -0.983925
    27  H   -0.000000  -0.000000  -0.068870   0.075004   0.000231   0.012641
    28  H   -0.000000  -0.000000  -0.042696   0.011193   0.000003   0.034108
    29  C   -0.000104   0.001298  -0.300087  -0.233253   0.022477   0.826618
    30  H    0.000000  -0.000000   0.033650  -0.010075  -0.000009  -0.029363
    31  H   -0.000000  -0.000000   0.011026  -0.113632   0.000045  -0.017376
    32  H    0.000000   0.000000   0.010096  -0.088064   0.001992   0.008765
    33  H    0.000000   0.000000   0.056688  -0.233856  -0.000013  -0.033459
               7          8          9         10         11         12
     1  H   -0.000000   0.000007  -0.000036   0.001369  -0.010244   0.000217
     2  H   -0.030573  -0.035438  -0.000071  -0.000015  -0.001080  -0.054764
     3  C    0.001212  -0.002489  -0.949035   0.099381   0.596013  -0.097141
     4  C   -0.000071   0.000556   0.895654   0.020666  -0.573625   0.120926
     5  H   -0.000014  -0.000006   0.029457   0.007100   0.004853  -0.001949
     6  C    0.001133   0.000620   0.330370   0.069869  -0.398194   0.049551
     7  H    0.517305  -0.031220   0.000007   0.000000  -0.021148  -0.056583
     8  H   -0.031220   0.504539  -0.000016  -0.000004  -0.015369  -0.052544
     9  C    0.000007  -0.000016   7.581819   0.124759  -0.078552   0.000283
    10  O    0.000000  -0.000004   0.124759   8.183160  -0.081331   0.004348
    11  P   -0.021148  -0.015369  -0.078552  -0.081331  14.048572  -0.414540
    12  O   -0.056583  -0.052544   0.000283   0.004348  -0.414540   8.937120
    13  O    0.000314   0.005088  -0.007042   0.070177  -0.117407   0.071975
    14  O   -0.000851   0.000221   0.007619   0.005784   0.578674  -0.106358
    15  C    0.414030   0.406365   0.001416   0.001903  -0.236980   0.115303
    16  C    0.000240  -0.000137   0.003223  -0.020063  -0.193676   0.029108
    17  H   -0.000000   0.000004   0.000244  -0.000487  -0.002411   0.000799
    18  H    0.000000   0.000001   0.000096  -0.006122  -0.028379  -0.001452
    19  C   -0.000009  -0.000012  -1.737826  -0.135097   0.086865  -0.009629
    20  H   -0.000000  -0.000000   0.014476   0.000437  -0.001597   0.000422
    21  C   -0.000119  -0.000005  -0.359688   0.036976   0.082466  -0.010030
    22  C   -0.000065  -0.000032   0.620422   0.057710  -0.104910   0.001528
    23  H   -0.000000  -0.000000  -0.034512  -0.000402   0.001376  -0.000019
    24  H   -0.000000  -0.000000   0.023939   0.006164  -0.000531  -0.000528
    25  H   -0.000000   0.000000   0.043366   0.000413  -0.000335  -0.000005
    26  C   -0.000071   0.000275  -0.855661  -0.007850  -0.038589   0.038431
    27  H   -0.000000  -0.000000   0.023230   0.000103   0.000281  -0.000113
    28  H   -0.000000   0.000000   0.197638  -0.002099  -0.000050   0.000008
    29  C    0.000311  -0.000253   0.345250  -0.059161   0.057490  -0.034911
    30  H    0.000000   0.000000   0.029142   0.000223  -0.005958   0.000030
    31  H   -0.000000   0.000000  -0.000899   0.000304  -0.000644  -0.000004
    32  H    0.000000  -0.000000   0.002682  -0.000107   0.000166  -0.000092
    33  H   -0.000000  -0.000000  -0.011225  -0.000243   0.001498  -0.000016
              13         14         15         16         17         18
     1  H   -0.054706  -0.000039   0.001874   0.403191  -0.031007  -0.031677
     2  H   -0.001210   0.008024   0.393535  -0.000641  -0.000005   0.000000
     3  C    0.340392   0.079254  -0.053495  -0.155421   0.002668  -0.026720
     4  C   -0.046795   0.048685   0.033217   0.014661   0.000195   0.000493
     5  H   -0.000144   0.000045   0.000305  -0.000428   0.000000  -0.000000
     6  C   -0.457036  -0.261348   0.043144   0.118048   0.002728   0.047384
     7  H    0.000314  -0.000851   0.414030   0.000240  -0.000000   0.000000
     8  H    0.005088   0.000221   0.406365  -0.000137   0.000004   0.000001
     9  C   -0.007042   0.007619   0.001416   0.003223   0.000244   0.000096
    10  O    0.070177   0.005784   0.001903  -0.020063  -0.000487  -0.006122
    11  P   -0.117407   0.578674  -0.236980  -0.193676  -0.002411  -0.028379
    12  O    0.071975  -0.106358   0.115303   0.029108   0.000799  -0.001452
    13  O    8.874625  -0.074792   0.007689   0.070473  -0.056508  -0.053174
    14  O   -0.074792   8.517352  -0.039054  -0.059457   0.009538  -0.002396
    15  C    0.007689  -0.039054   5.419294   0.008361  -0.000982  -0.000798
    16  C    0.070473  -0.059457   0.008361   5.435284   0.386390   0.415336
    17  H   -0.056508   0.009538  -0.000982   0.386390   0.493240  -0.033209
    18  H   -0.053174  -0.002396  -0.000798   0.415336  -0.033209   0.487323
    19  C    0.000530  -0.013010  -0.005987  -0.003501   0.000137  -0.000136
    20  H    0.000060   0.001053   0.000274   0.000089  -0.000000  -0.000000
    21  C    0.005238   0.008762  -0.003663  -0.004262   0.000034  -0.000408
    22  C    0.000787   0.021547   0.004259   0.002543  -0.000105   0.000195
    23  H    0.000002  -0.000032  -0.000042   0.000000   0.000000  -0.000000
    24  H   -0.000038  -0.000192  -0.000097  -0.000285   0.000000   0.000001
    25  H    0.000000   0.000005  -0.000006  -0.000012   0.000000   0.000000
    26  C    0.003251  -0.026589   0.005926  -0.006044   0.000727  -0.001466
    27  H   -0.000008  -0.000065  -0.000037  -0.000001   0.000000   0.000000
    28  H   -0.000007  -0.000024   0.000012   0.000015  -0.000000   0.000000
    29  C    0.004424  -0.004095  -0.000909   0.003196  -0.000960   0.000663
    30  H    0.000043   0.000769   0.000060   0.000056  -0.000001  -0.000003
    31  H   -0.000001   0.000001   0.000001  -0.000003   0.000000   0.000000
    32  H    0.000000  -0.000003  -0.000029  -0.000006   0.000000   0.000000
    33  H    0.000007   0.000001  -0.000032   0.000007  -0.000000  -0.000000
              19         20         21         22         23         24
     1  H   -0.000010   0.000000   0.000027   0.000003   0.000000  -0.000000
     2  H    0.000091  -0.000002   0.000013   0.000281   0.000000   0.000000
     3  C    0.941813   0.000174   1.644781  -0.843543   0.023977  -0.070255
     4  C   -1.455432   0.018093  -2.206548   1.032507  -0.041893   0.375457
     5  H   -0.032867  -0.000213  -0.049045   0.005703   0.000009   0.003860
     6  C    0.347777  -0.022380  -1.697891  -0.288869   0.010793   0.059136
     7  H   -0.000009  -0.000000  -0.000119  -0.000065  -0.000000  -0.000000
     8  H   -0.000012  -0.000000  -0.000005  -0.000032  -0.000000  -0.000000
     9  C   -1.737826   0.014476  -0.359688   0.620422  -0.034512   0.023939
    10  O   -0.135097   0.000437   0.036976   0.057710  -0.000402   0.006164
    11  P    0.086865  -0.001597   0.082466  -0.104910   0.001376  -0.000531
    12  O   -0.009629   0.000422  -0.010030   0.001528  -0.000019  -0.000528
    13  O    0.000530   0.000060   0.005238   0.000787   0.000002  -0.000038
    14  O   -0.013010   0.001053   0.008762   0.021547  -0.000032  -0.000192
    15  C   -0.005987   0.000274  -0.003663   0.004259  -0.000042  -0.000097
    16  C   -0.003501   0.000089  -0.004262   0.002543   0.000000  -0.000285
[...]
 00010397,-0.00000475,-0.00033739,0.00000837,-0.00010651,0.00011752,0.0
 0008447,0.00006773,0.00009014,-0.00004562,-0.00000077,0.00007135,-0.00
 007694,0.00015896,-0.00004155,-0.00001541,-0.00003626,-0.00002110,0.00
 004769,-0.00000032,0.00000441,-0.00000276,0.00000595,-0.00000783,0.000
 00447,-0.00000254,-0.00582742,-0.01101822,-0.01824299,-0.00019941,0.00
 030333,0.00032670,-0.00000858,-0.00004554,0.00013127,0.00239090,-0.002
 81883,0.00054470,-0.00003985,-0.00042032,-0.00062176,-0.00017055,-0.00
 008125,0.00041662,-0.00012937,0.00009854,0.00135981,0.00219552,0.00635
 041,0.00290456,0.00011275,-0.00017686,-0.00105077,0.02727809,0.2400752
 6,-0.00000609,0.00000602,0.00000560,-0.00000103,0.00000083,-0.00000669
 ,-0.00110018,0.00031359,0.00018628,0.00061110,-0.00010572,0.00005229,0
 .00001562,0.00004674,-0.00007348,0.00040491,-0.00113960,-0.00036932,-0
 .00000086,-0.00000642,-0.00000152,-0.00001101,-0.00000139,0.00000072,-
 0.03581343,-0.14513602,-0.16197742,0.00080692,0.00106576,0.00027364,0.
 00038801,0.00000491,-0.00007105,-0.00009927,-0.00004631,-0.00001282,-0
 .00012054,0.00006978,0.00006658,-0.00013901,0.00005768,-0.00001820,0.0
 0006009,0.00003503,0.00002882,0.00002775,-0.00007735,-0.00001218,-0.00
 000385,0.00000211,-0.00000993,0.00000520,0.00000203,0.00000966,0.00011
 269,0.00592556,0.00814308,0.00040079,-0.00090741,-0.00037708,-0.000091
 31,-0.00002168,0.00008885,-0.00324191,-0.00027308,0.00125434,0.0002462
 4,0.00055263,0.00067585,0.00000384,-0.00020087,-0.00006392,0.00087768,
 0.00046202,-0.00115312,0.00091362,-0.01734269,-0.00547702,-0.00012993,
 -0.00019590,0.00003872,0.03985455,0.15694964,0.16092775,0.00006200,-0.
 00004835,-0.00000685,0.00005782,0.00001794,0.00006685,0.00596087,-0.00
 165941,-0.00490277,0.00220049,0.00153578,0.00187275,-0.00046423,-0.000
 05714,0.00123787,-0.00561041,0.00848812,0.00262822,0.00003719,0.000054
 24,0.00001936,0.00007277,0.00001978,0.00001211,-0.00072237,-0.01740101
 ,-0.01917149,0.00044081,-0.00608242,-0.00217693,-0.00249512,0.00073349
 ,-0.00202786,0.00085036,0.00040017,0.00064902,0.00087940,-0.00048546,0
 .00005689,-0.00022629,-0.00064596,0.00123343,-0.00032450,-0.00017650,-
 0.00020986,-0.00013506,0.00039591,0.00001070,0.00005822,-0.00004256,0.
 00003097,-0.00006603,0.00003922,-0.00001906,-0.02659785,-0.00457750,-0
 .02318198,-0.15926899,-0.04992970,-0.14190420,-0.00051968,-0.00118858,
 -0.00015765,-0.15908162,0.04846961,-0.05084181,-0.02301797,0.00869611,
 -0.00871561,-0.00087822,-0.00035057,0.00035068,-0.00145164,-0.00149809
 ,0.00072965,-0.08715053,0.03212138,-0.01128723,0.00476583,-0.00221966,
 0.00589837,-0.00113399,0.00258631,-0.00491981,0.44891665,0.00001447,-0
 .00002221,-0.00001345,0.00000232,-0.00000588,0.00000506,0.00161557,0.0
 0074399,-0.01731481,0.02138771,0.00716225,-0.00728178,-0.00177309,-0.0
 0137346,0.00312583,-0.00312962,0.00893647,0.00236233,0.00000274,0.0000
 1327,0.00000313,0.00000911,0.00000008,-0.00000366,-0.04498604,0.005970
 53,-0.05169400,-0.00398657,-0.00670938,-0.00095878,-0.00051241,-0.0002
 7512,-0.00018350,0.00004998,0.00016466,0.00011183,0.00035778,-0.000175
 57,-0.00024414,0.00029211,-0.00000017,-0.00027409,-0.00006991,-0.00005
 649,-0.00001329,-0.00004163,0.00020770,0.00008093,0.00000521,-0.000017
 34,0.00001244,-0.00001243,-0.00002029,-0.00001660,-0.00754805,-0.02084
 334,0.01208210,-0.05427862,-0.08524410,-0.07857922,-0.00303638,-0.0017
 1724,0.00335746,0.05459504,-0.10771960,0.01780761,-0.00004291,0.002128
 89,-0.00125232,-0.00090589,-0.00035751,0.00107942,0.00234413,-0.001857
 03,-0.00556857,0.04939554,-0.32875040,-0.10831563,0.02825379,-0.009320
 74,0.00868209,0.00008878,0.00011247,-0.00108543,-0.03737249,0.54981567
 ,-0.00002435,0.00000066,-0.00000057,-0.00008970,0.00001650,-0.00004926
 ,-0.00251047,-0.00272682,0.01151048,-0.01116171,-0.00657355,-0.0000926
 3,0.00066312,0.00033739,-0.00101011,0.00319212,-0.00370862,-0.00351558
 ,-0.00004183,-0.00003232,-0.00000532,-0.00000961,0.00000042,-0.0000384
 2,-0.01706815,-0.02731255,-0.02533972,-0.00052285,0.00272283,0.0017279
 9,0.00112873,0.00019128,0.00207516,-0.00035639,-0.00045317,-0.00049259
 ,-0.00026107,0.00006812,-0.00027000,0.00000333,-0.00031399,-0.00134174
 ,0.00012447,-0.00002160,0.00016609,0.00000523,0.00001019,0.00000619,-0
 .00000035,0.00002695,0.00000269,0.00001202,-0.00001657,-0.00004026,-0.
 03363109,0.00756703,-0.03521494,-0.14123162,-0.07522044,-0.20165411,0.
 00080659,0.00034172,-0.00112638,-0.04068731,0.01116091,-0.08373638,0.0
 1660815,-0.00865196,0.00770696,0.00060728,0.00156732,-0.00123597,-0.00
 020037,-0.00413178,-0.00345440,-0.01324505,-0.13570557,-0.13813155,0.0
 0060766,-0.00020541,-0.00130599,-0.00515220,-0.00034042,-0.00156010,0.
 24247904,0.23401675,0.46990115,0.00001499,0.00000989,-0.00002010,0.000
 00282,-0.00001433,0.00000070,0.00019825,-0.00013139,0.00017481,-0.0009
 3750,0.00002754,0.00022084,0.00003754,0.00000446,-0.00003594,0.0001446
 9,0.00045346,0.00033593,0.00000324,0.00001503,-0.00000008,0.00001208,-
 0.00000215,0.00000290,-0.00582695,0.01309313,0.00113327,-0.00027418,-0
 .00056511,0.00015175,-0.00010719,-0.00067225,0.00070765,0.00005964,0.0
 0027271,-0.00007515,0.00009893,-0.00001475,-0.00020105,0.00008179,0.00
 052765,-0.00030925,-0.00009133,-0.00005535,-0.00004682,-0.00001245,0.0
 0005558,0.00005344,-0.00005110,0.00000013,0.00000090,-0.00000927,-0.00
 001156,0.00002463,0.00016405,0.00144060,-0.00411068,-0.00111815,-0.000
 58883,0.00171889,0.00016892,0.00022527,-0.00034270,0.00322160,0.001130
 94,-0.00353635,0.00070638,-0.00068211,0.00038990,0.00001848,0.00002214
 ,-0.00004013,0.00021783,0.00036391,-0.00009970,-0.19259873,0.14835104,
 -0.04859894,-0.00045695,0.00020473,-0.00015015,-0.00053851,-0.00092312
 ,0.00094461,0.00472795,-0.00167899,-0.00008049,0.19214426,0.00001397,-
 0.00000911,-0.00001472,-0.00000294,-0.00001834,-0.00000611,-0.00051557
 ,0.00004748,0.00012291,-0.00034151,0.00031142,0.00013830,0.00003608,0.
 00001672,-0.00003084,0.00049487,-0.00081695,-0.00017001,0.00000524,0.0
 0001829,-0.00000205,0.00001170,-0.00000263,0.00000120,-0.00427288,0.00
 697250,-0.00099024,-0.00006548,0.00074298,-0.00009032,-0.00024965,-0.0
 0098740,0.00130150,0.00003126,0.00033992,-0.00012539,0.00017722,-0.000
 08735,-0.00037961,0.00072900,0.00078017,-0.00065454,-0.00009576,-0.000
 06222,-0.00003381,-0.00004948,0.00016601,0.00005080,-0.00001408,0.0000
 0968,0.00001983,-0.00000365,-0.00001205,-0.00000918,0.00061581,0.00108
 691,-0.00331322,-0.00144795,0.00008446,0.00111370,0.00012094,0.0001096
 9,-0.00024249,0.00111138,-0.00231958,-0.00337840,0.00068923,-0.0006115
 2,0.00014942,-0.00001636,-0.00003393,0.00001588,-0.00001931,0.00013285
 ,0.00008359,0.14417407,-0.20156962,0.03364624,0.00066570,-0.00012828,-
 0.00000391,-0.00026507,-0.00034584,0.00108647,0.01947023,-0.00981042,0
 .00716262,-0.16094035,0.20586383,-0.00001883,-0.00001874,-0.00000109,-
 0.00000468,0.00000226,-0.00000613,0.00079870,-0.00019922,-0.00003825,-
 0.00009419,-0.00081836,0.00012162,0.00005089,0.00000336,-0.00003181,-0
 .00012410,0.00169745,0.00043705,-0.00000617,-0.00000852,-0.00000465,-0
 .00000725,0.00000085,-0.00000365,-0.01242093,0.01732054,-0.00028367,-0
 .00040089,-0.00123545,-0.00000535,0.00028242,0.00041041,0.00017133,-0.
 00010616,-0.00012277,-0.00008325,-0.00002698,-0.00004172,-0.00008093,-
 0.00018932,-0.00013208,-0.00034574,0.00004710,0.00000415,0.00004807,0.
 00002561,0.00005317,0.00003969,0.00002587,0.00000425,0.00001233,0.0000
 1597,-0.00000287,-0.00005606,-0.00586664,-0.00216936,-0.00088078,0.001
 25193,0.00167360,-0.00147965,-0.00019176,-0.00025658,0.00020972,-0.003
 63300,-0.00542934,0.00232102,-0.00078705,0.00078455,-0.00036452,-0.000
 00269,0.00007330,-0.00002750,-0.00061914,0.00155792,0.00003931,-0.0450
 3773,0.03302344,-0.05903683,0.00141802,-0.00061191,0.00074333,0.001692
 67,0.00022682,-0.00055808,0.01195396,-0.01035420,0.00640118,0.05182787
 ,-0.03543489,0.05262314,-0.00002724,0.00001983,0.00000908,-0.00001535,
 0.00000089,-0.00001603,-0.00167228,0.00453075,0.00017918,-0.01584837,-
 0.00576697,-0.00429278,0.00013554,-0.00015081,0.00034422,-0.00011741,-
 0.00109825,-0.00143698,-0.00001097,-0.00002133,-0.00000827,-0.00002595
 ,-0.00000150,-0.00000432,0.00016668,0.00047599,0.00021153,0.00017501,0
 .00063200,0.00030397,0.00056342,0.00014694,0.00043380,-0.00027414,-0.0
 0022846,-0.00014489,-0.00041808,0.00016017,0.00010556,-0.00018012,0.00
 005813,-0.00023445,0.00012945,0.00005873,0.00007139,0.00004164,-0.0001
 6427,-0.00002636,-0.00000187,0.00001703,-0.00000770,0.00001767,0.00000
 591,-0.00000690,-0.00071256,-0.00185533,0.00076998,0.00005278,-0.00001
 541,0.00000253,-0.27631219,-0.06677275,-0.05863993,0.00032009,-0.00012
 007,-0.00022213,0.00004580,0.00004292,-0.00011817,0.00040375,0.0001945
 9,0.00029985,0.00110178,0.00030716,-0.00013116,0.00029998,-0.00004616,
 0.00006929,-0.00006903,0.00007694,0.00001693,-0.00005195,0.00000247,-0
 .00000478,-0.00021887,-0.00004262,0.00023205,0.00003183,-0.00000016,0.
 00005245,0.30133569,0.00000350,-0.00001368,-0.00000254,0.00000198,-0.0
 0000013,-0.00000128,0.00222109,-0.00429861,-0.00003654,0.02560957,0.00
 770128,0.00900726,0.00012171,0.00006751,0.00021665,0.00130727,0.000401
 38,0.00098542,0.00001256,0.00000929,0.00000788,-0.00000016,-0.00000027
 ,0.00000296,0.00003727,-0.00022251,0.00027913,-0.00035317,0.00006717,-
 0.00004371,-0.00004279,-0.00035580,-0.00025468,0.00002159,0.00015463,0
 .00002645,0.00023950,-0.00001380,-0.00003561,0.00004120,0.00002035,0.0
 0013378,-0.00000251,-0.00000285,-0.00000428,0.00000143,0.00005513,0.00
 001516,0.00000147,-0.00000579,-0.00000128,-0.00000352,-0.00000757,-0.0
 0000123,0.00182580,0.00049022,-0.00015938,-0.00002931,-0.00000390,0.00
 001256,-0.06900876,-0.06902529,-0.01990468,-0.00033326,-0.00014581,0.0
 0010107,0.00001011,0.00008896,0.00004008,-0.00081804,0.00085964,-0.000
 36275,-0.00022919,-0.00051071,0.00046523,-0.00016423,-0.00014061,-0.00
 013750,-0.00008476,0.00003727,0.00002875,0.00002791,-0.00000872,-0.000
 00253,0.00014122,0.00015193,-0.00018278,0.00000543,0.00001209,-0.00000
 798,0.07313481,0.07511201,0.00000091,0.00000435,0.00000078,0.00000140,
 -0.00000006,0.00000075,-0.00054962,0.00101310,0.00139373,-0.00668179,-
 0.00119700,-0.00402404,0.00028843,0.00007142,0.00015143,-0.00062649,0.
 00054561,-0.00003967,0.00000332,0.00000188,-0.00000147,-0.00000265,0.0
 0000058,-0.00000136,0.00031431,0.00017350,0.00009309,-0.00005689,-0.00
 025022,-0.00008063,-0.00010300,0.00005554,-0.00003888,-0.00000934,0.00
 002105,0.00000811,-0.00005024,0.00000521,0.00001590,-0.00000254,0.0000
 2580,-0.00006520,-0.00000310,-0.00000526,0.00000674,-0.00000225,-0.000
 01135,0.00000174,-0.00000072,0.00000016,-0.00000017,-0.00000187,0.0000
 0375,0.00000313,-0.00115147,-0.00001570,0.00002576,0.00003762,-0.00002
 167,0.00000487,-0.05736301,-0.01907010,-0.06345708,0.00022556,-0.00031
 743,-0.00032863,-0.00000163,0.00012715,-0.00008624,0.00056125,0.000211
 95,0.00018805,0.00033805,0.00086376,-0.00019001,0.00009961,-0.00017985
 ,0.00008713,-0.00013916,0.00003014,0.00009431,-0.00001538,-0.00003377,
 0.00001420,-0.00001656,-0.00003819,0.00007238,0.00001948,-0.00000188,0
 .00001533,0.06456909,0.01743422,0.06415402,-0.00000205,-0.00000347,-0.
 00000194,-0.00000069,0.00000036,0.00000222,0.00108178,0.00069616,0.001
 02711,-0.00061166,0.01182254,0.01650227,-0.00033049,-0.00037049,-0.000
 42285,0.00024077,-0.00011232,0.00024116,-0.00001345,-0.00000821,-0.000
 00502,0.00000431,-0.00000120,0.00000016,0.00001789,-0.00027552,0.00010
 478,-0.00045532,-0.00005071,-0.00034097,0.00008837,0.00021912,0.000054
 56,0.00000481,-0.00014506,-0.00001540,0.00001444,-0.00004285,-0.000025
 29,-0.00002411,-0.00004193,-0.00001289,-0.00000712,-0.00000132,-0.0000
 0599,0.00000321,0.00001832,0.00000652,0.00000065,-0.00000143,-0.000000
 15,0.00000310,-0.00000962,-0.00000547,-0.00010879,-0.00032298,-0.00011
 472,-0.00002737,-0.00001525,0.00001673,-0.05047673,0.00507792,0.005239
 93,0.00011516,0.00019530,0.00003747,-0.00002173,-0.00016939,0.00001804
 ,-0.00156989,0.00272528,-0.00147485,0.00001830,0.00003564,-0.00018678,
 -0.00007330,0.00002527,-0.00009173,0.00036146,-0.00003376,-0.00018380,
 -0.00000211,0.00000631,-0.00000700,0.00014418,0.00010796,0.00002970,-0
 .00000298,0.00000329,0.00000091,0.00285893,-0.01953461,-0.02467157,0.0
 4960852,0.00000462,-0.00000071,0.00000033,0.00000507,-0.00000223,0.000
 00349,-0.00233170,0.00108956,0.00005069,0.00088501,-0.01967021,-0.0217
 3707,0.00075002,0.00047060,0.00024486,-0.00002149,-0.00060884,-0.00013
 797,0.00000651,0.00000602,0.00000008,0.00000134,0.00000028,0.00000152,
 -0.00006109,0.00024159,-0.00016706,0.00055833,0.00031821,0.00058346,-0
 .00008111,-0.00004770,-0.00021066,0.00004859,0.00006909,0.00005659,0.0
 0004478,-0.00000773,0.00002726,0.00000492,-0.00001011,0.00007992,-0.00
 001717,0.00000129,-0.00001612,-0.00000979,0.00000885,-0.00000549,0.000
 00314,-0.00000142,0.00000216,-0.00000385,0.00000687,0.00000242,0.00009
 557,0.00036813,-0.00106488,-0.00004139,0.00002643,-0.00000652,0.005274
 76,-0.15282096,-0.12850246,-0.00044539,-0.00087578,0.00018503,0.000016
 72,0.00026564,0.00000826,0.00341790,-0.00270271,0.00199900,-0.00003389
 ,-0.00010211,0.00004978,-0.00023882,0.00031507,0.00009789,0.00025898,0
 .00037699,0.00113076,-0.00002858,0.00011975,-0.00000591,0.00057114,0.0
 0017200,-0.00001430,-0.00003459,0.00002688,0.00005963,0.00026809,-0.00
 576113,-0.00640242,-0.00889501,0.16737185,0.00000373,-0.00000219,-0.00
 000362,0.00000483,-0.00000110,0.00000375,0.00008242,0.00010737,0.00061
 198,0.00032362,0.00607028,0.00631402,0.00041653,-0.00020464,0.00012433
 ,0.00019208,0.00024830,0.00007020,0.00001335,0.00001548,0.00000655,0.0
 0000586,0.00000346,0.00000429,-0.00034618,0.00024945,-0.00004682,-0.00
 018533,0.00008642,0.00003426,-0.00021930,-0.00024487,-0.00006007,0.000
 08022,0.00018516,0.00003533,0.00009478,0.00000952,-0.00000811,0.000090
 42,0.00003231,0.00004917,-0.00003693,-0.00004606,-0.00002738,-0.000013
 17,0.00002082,0.00000299,-0.00000138,-0.00000180,0.00000223,-0.0000044
 5,0.00000270,0.00000067,0.00002594,-0.00099221,0.00026598,-0.00002221,
 -0.00001680,0.00001859,0.00626200,-0.13046329,-0.20466317,-0.00020464,
 0.00071569,-0.00040566,0.00003286,-0.00014650,0.00006093,-0.00104147,0
 .00169417,0.00057550,0.00011583,-0.00000172,-0.00007277,0.00001444,0.0
 0019660,0.00015285,-0.00000549,0.00087403,-0.00082029,0.00003957,0.000
 01197,-0.00003293,0.00004035,0.00003830,0.00011562,-0.00000750,0.00000
 385,0.00003354,0.00045967,-0.00294368,-0.00536785,-0.00605140,0.141341
 84,0.22275813,-0.00000731,-0.00000135,-0.00000038,-0.00000063,0.000001
 23,0.00000103,-0.00030834,0.00134141,-0.00013361,0.00467383,0.00938267
 ,-0.01589933,0.00002170,-0.00006383,-0.00033095,0.00066399,-0.00117774
 ,0.00067599,-0.00000877,-0.00000934,-0.00000890,-0.00000653,-0.0000004
 8,-0.00000430,0.00070218,-0.00062038,0.00044832,-0.00010996,0.00050197
 ,0.00001716,0.00027359,0.00021692,-0.00011349,-0.00006722,-0.00015125,
 0.00000591,-0.00004733,-0.00002829,0.00003231,-0.00008358,-0.00002234,
 -0.00003846,0.00001448,0.00001306,0.00001036,0.00001046,0.00000458,0.0
 0000307,0.00000274,-0.00000295,-0.00000071,0.00000910,-0.00000691,-0.0
 0000735,-0.00079712,0.00143512,-0.00086354,0.00001842,-0.00002192,0.00
 000630,-0.08626999,-0.04949308,0.07972292,-0.00016047,0.00006713,0.000
 26585,0.00000092,-0.00000976,-0.00002955,0.00056730,-0.00058100,0.0004
 0488,0.00048208,0.00033461,0.00004825,-0.00024291,-0.00029341,-0.00085
 606,-0.00009069,-0.00010701,0.00002618,-0.00000286,0.00001234,0.000016
 42,0.00018882,0.00089541,-0.00022489,-0.00003002,-0.00004979,0.0000931
 6,-0.01172365,-0.01416112,0.02499027,-0.00083810,0.00002839,-0.0001590
 5,0.09316586,0.00001726,-0.00000218,-0.00000269,0.00000300,-0.00000219
 ,0.00000313,-0.00099456,-0.00000255,-0.00129053,-0.00604829,-0.0131192
 1,0.02018460,-0.00011265,-0.00013787,0.00046719,-0.00016987,0.00036480
 ,-0.00062997,0.00000328,0.00001008,0.00000497,0.00001474,-0.00000022,0
 .00000298,-0.00150558,0.00146207,-0.00028806,0.00023029,-0.00015784,-0
 .00005229,-0.00034781,-0.00014834,0.00019627,0.00012626,0.00011997,0.0
 0000535,0.00013739,-0.00003571,-0.00011371,0.00015185,0.00003287,-0.00
 001068,-0.00005813,-0.00002846,-0.00002341,-0.00002011,0.00004889,0.00
 001325,-0.00000781,-0.00000202,0.00000086,-0.00001299,-0.00000185,0.00
 001196,0.00092735,-0.00426033,0.00145014,-0.00000225,0.00000862,-0.000
 00087,-0.05141316,-0.10765959,0.09925332,0.00016524,-0.00009378,-0.000
 59359,-0.00000045,0.00000438,-0.00002192,-0.00033968,0.00035469,-0.000
 67535,0.00046791,0.00025418,-0.00029107,0.00072924,0.00083676,0.001260
 49,0.00014637,0.00016577,0.00025682,-0.00001239,-0.00003100,-0.0000325
 2,-0.00000524,-0.00130364,0.00042113,0.00011124,0.00009335,-0.00005171
 ,-0.00384922,-0.00471168,0.00695572,0.00910166,0.01135654,-0.01684283,
 0.05256711,0.11658548,-0.00000467,0.00000019,0.00000147,0.00000316,-0.
 00000145,0.00000359,0.00032605,-0.00027967,0.00131139,0.00096252,0.004
 25369,-0.00566740,0.00004294,0.00014867,-0.00062073,-0.00035335,0.0001
 9631,0.00045885,-0.00000868,-0.00001035,-0.00001261,-0.00000528,0.0000
 0055,-0.00000243,0.00010308,-0.00008280,-0.00006680,-0.00009490,-0.000
 17444,-0.00022486,0.00016240,0.00029396,-0.00012420,-0.00005149,-0.000
 16707,0.00002520,-0.00006140,-0.00003665,0.00003693,-0.00009034,-0.000
 06056,0.00001407,0.00001215,0.00002187,0.00000575,0.00000537,0.0000009
 9,-0.00000050,0.00000473,-0.00000192,0.00000033,0.00000408,-0.00000235
 ,-0.00000535,-0.00092077,-0.00030058,0.00052823,-0.00002401,0.00001753
 ,-0.00001856,0.08083274,0.09752103,-0.20745825,-0.00028787,-0.00020613
 ,0.00034852,0.00000293,0.00003859,0.00000892,-0.00020814,0.00017785,0.
 00030848,0.00011763,-0.00011010,0.00009269,-0.00019487,0.00007285,-0.0
 0021233,0.00012534,0.00013510,0.00033845,-0.00001900,0.00003837,0.0000
 0851,0.00026946,0.00042641,-0.00006989,-0.00005253,-0.00001469,0.00007
 131,-0.00283574,-0.00467415,0.00734978,0.01033626,0.01234591,-0.019732
 24,-0.08809780,-0.10956697,0.22330368\\-0.00000009,-0.00000072,0.00000
 086,0.,0.00000085,-0.00000068,0.00000004,0.00000060,0.00000012,-0.0000
 0004,-0.00000070,-0.00000018,-0.00000007,-0.00000035,-0.00000095,-0.00
 000019,-0.00000081,-0.00000007,-0.00000002,0.00000040,-0.00000140,-0.0
 0000028,0.00000022,-0.00000059,-0.00000020,0.00000006,0.00000050,0.000
 00015,-0.00000048,0.00000070,0.00000031,-0.00000043,0.00000061,-0.0000
 0035,0.00000027,-0.00000085,-0.00000007,-0.00000049,0.00000020,-0.0000
 0013,0.00000092,-0.00000006,0.00000058,0.00000074,-0.00000108,0.000000
 61,-0.00000044,0.00000152,-0.00000014,0.00000014,0.00000072,-0.0000003
 3,-0.00000093,0.00000092,0.00000082,-0.00000008,0.00000076,-0.00000037
 ,0.00000100,-0.00000040,0.00000009,-0.00000076,-0.00000043,-0.00000054
 ,0.00000113,-0.00000039,0.00000010,0.00000087,-0.00000006,-0.00000009,
 -0.00000108,-0.00000008,-0.00000061,-0.00000012,-0.00000010,0.00000022
 ,0.00000038,0.00000094,0.00000007,0.00000045,-0.00000057,-0.00000002,-
 0.00000028,0.00000117,0.00000052,0.00000122,0.00000098,0.00000006,0.00
 000053,0.00000109,-0.00000003,-0.00000083,-0.00000073,-0.00000004,-0.0
 0000032,-0.00000116,0.00000004,-0.00000098,-0.00000129\\\@


 FROM WHENCE IT HAPPENS, THAT THEY WHICH TRUST TO BOOKS, DO AS THEY THAT CAST UP MANY LITTLE SUMMS INTO GREATER,
 WITHOUT CONSIDERING WETHER THOSE LITTLE SUMMES WERE RIGHTLY CAST UP OR NOT...
 AND AT LAST FINDING THE ERROUR VISIBLE, AND NOT MISTRUSTING THEIR FIRST GROUNDS,
 KNOW NOT WHICH WAY TO CLEERE THEMSELVES...
 BUT SPEND TIME IN FLUTTERING OVER THEIR BOOKES....
 AS BIRDS THAT ENTERING BY THE CHIMNEY, AND FINDING THEMSELVES INCLOSED IN A CHAMBER,
 FLUTTER AT THE FALSE LIGHT OF A GLASSE WINDOW,
 FOR WANT OF WIT TO CONSIDER WHICH WAY THEY CAME IN....
           LEVIATHAN
 Job cpu time:       0 days  5 hours  3 minutes 22.4 seconds.
 Elapsed time:       0 days  1 hours 15 minutes 53.1 seconds.
 File lengths (MBytes):  RWF=    433 Int=      0 D2E=      0 Chk=      9 Scr=      1
 Normal termination of Gaussian 16 at Wed Jan 16 19:24:25 2019.
