 Entering Gaussian System, Link 0=/usr/local/shared/gaussian/x86_64_sse4/16-B01/g16/g16
 Initial command:
 /usr/local/shared/gaussian/x86_64_sse4/16-B01/g16/l1.exe "/scratch/sl884/TS2uncatalysed1a_freq_B3LYP_631pGd-1/Gau-28395.inp" -scrdir="/scratch/sl884/TS2uncatalysed1a_freq_B3LYP_631pGd-1/"
 Entering Link 1 = /usr/local/shared/gaussian/x86_64_sse4/16-B01/g16/l1.exe PID=     28399.
  
 Copyright (c) 1988-2017, Gaussian, Inc.  All Rights Reserved.
  
 This is part of the Gaussian(R) 16 program.  It is based on
 the Gaussian(R) 09 system (copyright 2009, Gaussian, Inc.),
 the Gaussian(R) 03 system (copyright 2003, Gaussian, Inc.),
 the Gaussian(R) 98 system (copyright 1998, Gaussian, Inc.),
 the Gaussian(R) 94 system (copyright 1995, Gaussian, Inc.),
 the Gaussian 92(TM) system (copyright 1992, Gaussian, Inc.),
 the Gaussian 90(TM) system (copyright 1990, Gaussian, Inc.),
 the Gaussian 88(TM) system (copyright 1988, Gaussian, Inc.),
 the Gaussian 86(TM) system (copyright 1986, Carnegie Mellon
 University), and the Gaussian 82(TM) system (copyright 1983,
 Carnegie Mellon University). Gaussian is a federally registered
 trademark of Gaussian, Inc.
  
 This software contains proprietary and confidential information,
 including trade secrets, belonging to Gaussian, Inc.
  
 This software is provided under written license and may be
 used, copied, transmitted, or stored only in accord with that
 written license.
  
 The following legend is applicable only to US Government
 contracts under FAR:
  
                    RESTRICTED RIGHTS LEGEND
  
 Use, reproduction and disclosure by the US Government is
 subject to restrictions as set forth in subparagraphs (a)
 and (c) of the Commercial Computer Software - Restricted
 Rights clause in FAR 52.227-19.
  
 Gaussian, Inc.
 340 Quinnipiac St., Bldg. 40, Wallingford CT 06492
  
  
 ---------------------------------------------------------------
 Warning -- This program may not be used in any manner that
 competes with the business of Gaussian, Inc. or will provide
 assistance to any competitor of Gaussian, Inc.  The licensee
 of this program is prohibited from giving any competitor of
 Gaussian, Inc. access to this program.  By using this program,
 the user acknowledges that Gaussian, Inc. is engaged in the
 business of creating and licensing software in the field of
 computational chemistry and represents and warrants to the
 licensee that it is not a competitor of Gaussian, Inc. and that
 it will not use this program in any manner prohibited above.
 ---------------------------------------------------------------
  

 Cite this work as:
 Gaussian 16, Revision B.01,
 M. J. Frisch, G. W. Trucks, H. B. Schlegel, G. E. Scuseria, 
 M. A. Robb, J. R. Cheeseman, G. Scalmani, V. Barone, 
 G. A. Petersson, H. Nakatsuji, X. Li, M. Caricato, A. V. Marenich, 
 J. Bloino, B. G. Janesko, R. Gomperts, B. Mennucci, H. P. Hratchian, 
 J. V. Ortiz, A. F. Izmaylov, J. L. Sonnenberg, D. Williams-Young, 
 F. Ding, F. Lipparini, F. Egidi, J. Goings, B. Peng, A. Petrone, 
 T. Henderson, D. Ranasinghe, V. G. Zakrzewski, J. Gao, N. Rega, 
 G. Zheng, W. Liang, M. Hada, M. Ehara, K. Toyota, R. Fukuda, 
 J. Hasegawa, M. Ishida, T. Nakajima, Y. Honda, O. Kitao, H. Nakai, 
 T. Vreven, K. Throssell, J. A. Montgomery, Jr., J. E. Peralta, 
 F. Ogliaro, M. J. Bearpark, J. J. Heyd, E. N. Brothers, K. N. Kudin, 
 V. N. Staroverov, T. A. Keith, R. Kobayashi, J. Normand, 
 K. Raghavachari, A. P. Rendell, J. C. Burant, S. S. Iyengar, 
 J. Tomasi, M. Cossi, J. M. Millam, M. Klene, C. Adamo, R. Cammi, 
 J. W. Ochterski, R. L. Martin, K. Morokuma, O. Farkas, 
 J. B. Foresman, and D. J. Fox, Gaussian, Inc., Wallingford CT, 2016.
 
 ******************************************
 Gaussian 16:  ES64L-G16RevB.01 20-Dec-2017
                17-Dec-2018 
 ******************************************
 %nproc=16
 Will use up to   16 processors via shared memory.
 %mem=16GB
 %chk=TS2uncatalysed1a_freq_B3LYP_631pGd-1.chk
 ------------------------------------------------------
 #p B3LYP/6-31+G* Int=Ultrafine freq=(hpmodes,intmodes)
 ------------------------------------------------------
 1/10=4,18=20,30=1,38=1/1,3;
 2/9=110,12=2,17=6,18=5,40=1/2;
 3/5=1,6=6,7=11,11=2,25=1,30=1,71=2,74=-5,75=-5,140=1/1,2,3;
 4//1;
 5/5=2,38=5,98=1/2;
 8/6=4,10=90,11=11/1;
 11/6=1,8=1,9=11,15=111,16=1/1,2,10;
 10/6=1/2;
 6/7=2,8=2,9=2,10=2,28=1/1;
 7/8=31,10=1,25=1/1,2,3,16;
 1/10=4,18=20,30=1/3;
 99//99;
 Leave Link    1 at Mon Dec 17 21:57:10 2018, MaxMem=  2147483648 cpu:               0.9 elap:               0.1
 (Enter /usr/local/shared/gaussian/x86_64_sse4/16-B01/g16/l101.exe)
 ------------------------------------
 TS2uncatalysed1a_freq_B3LYP_631pGd-1
 ------------------------------------
 Symbolic Z-matrix:
 Charge =  0 Multiplicity = 1
 H                     4.04021  -1.8027   -1.76085 
 H                     3.21827   1.77148   1.88224 
 C                    -0.90796   0.91235  -0.54119 
 C                    -2.23664   0.61893  -1.10929 
 H                    -0.66759   1.87778  -0.1086 
 C                     0.05977  -0.09131  -0.6543 
 H                     3.01764   3.24909   0.8892 
 H                     4.03295   1.90439   0.28931 
 C                    -2.32609  -1.66413   0.09954 
 O                    -0.19844  -1.2198   -1.16774 
 P                     1.7144    0.04732   0.15575 
 O                     1.96225   1.64544   0.2132 
 O                     2.798    -0.39852  -0.96771 
 O                     1.849    -0.69098   1.44791 
 C                     3.13847   2.1645    0.86418 
 C                     3.14594  -1.7887   -1.13408 
 H                     3.35826  -2.24707  -0.164 
 H                     2.3277   -2.31794  -1.63041 
 C                    -3.0542   -0.39039  -0.09652 
 H                    -1.13993   0.04952   2.65275 
 C                    -3.08869   1.85451  -1.42214 
 C                    -2.9869    0.26236   1.30506 
 H                    -3.83873  -0.082     1.91291 
 H                    -2.11408   0.01624  -2.0154 
 H                    -4.05325  -0.51054  -0.52737 
 C                    -1.53656  -1.59211   1.24565 
 H                    -3.00289   1.35379   1.30472 
 H                    -2.39679  -2.51565  -0.56614 
 C                    -1.7226   -0.34557   1.82731 
 H                    -0.78206  -2.31355   1.53443 
 H                    -4.08575   1.57041  -1.77998 
 H                    -3.21582   2.50791  -0.55135 
 H                    -2.60783   2.44736  -2.2084 
 
 ITRead=  0  0  0  0  0  0  0  0  0  0  0  0  0  0  0  0  0  0  0  0
 ITRead=  0  0  0  0  0  0  0  0  0  0  0  0  0
 MicOpt= -1 -1 -1 -1 -1 -1 -1 -1 -1 -1 -1 -1 -1 -1 -1 -1 -1 -1 -1 -1
 MicOpt= -1 -1 -1 -1 -1 -1 -1 -1 -1 -1 -1 -1 -1
 NAtoms=     33 NQM=       33 NQMF=       0 NMMI=      0 NMMIF=      0
                NMic=       0 NMicF=      0.
                    Isotopes and Nuclear Properties:
 (Nuclear quadrupole moments (NQMom) in fm**2, nuclear magnetic moments (NMagM)
  in nuclear magnetons)

  Atom         1           2           3           4           5           6           7           8           9          10
 IAtWgt=           1           1          12          12           1          12           1           1          12          16
 AtmWgt=   1.0078250   1.0078250  12.0000000  12.0000000   1.0078250  12.0000000   1.0078250   1.0078250  12.0000000  15.9949146
 NucSpn=           1           1           0           0           1           0           1           1           0           0
 AtZEff=  -0.0000000  -0.0000000  -0.0000000  -0.0000000  -0.0000000  -0.0000000  -0.0000000  -0.0000000  -0.0000000  -0.0000000
 NQMom=    0.0000000   0.0000000   0.0000000   0.0000000   0.0000000   0.0000000   0.0000000   0.0000000   0.0000000   0.0000000
 NMagM=    2.7928460   2.7928460   0.0000000   0.0000000   2.7928460   0.0000000   2.7928460   2.7928460   0.0000000   0.0000000
 AtZNuc=   1.0000000   1.0000000   6.0000000   6.0000000   1.0000000   6.0000000   1.0000000   1.0000000   6.0000000   8.0000000

  Atom        11          12          13          14          15          16          17          18          19          20
 IAtWgt=          31          16          16          16          12          12           1           1          12           1
 AtmWgt=  30.9737634  15.9949146  15.9949146  15.9949146  12.0000000  12.0000000   1.0078250   1.0078250  12.0000000   1.0078250
 NucSpn=           1           0           0           0           0           0           1           1           0           1
 AtZEff=  -0.0000000  -0.0000000  -0.0000000  -0.0000000  -0.0000000  -0.0000000  -0.0000000  -0.0000000  -0.0000000  -0.0000000
 NQMom=    0.0000000   0.0000000   0.0000000   0.0000000   0.0000000   0.0000000   0.0000000   0.0000000   0.0000000   0.0000000
 NMagM=    1.1316000   0.0000000   0.0000000   0.0000000   0.0000000   0.0000000   2.7928460   2.7928460   0.0000000   2.7928460
 AtZNuc=  15.0000000   8.0000000   8.0000000   8.0000000   6.0000000   6.0000000   1.0000000   1.0000000   6.0000000   1.0000000

  Atom        21          22          23          24          25          26          27          28          29          30
 IAtWgt=          12          12           1           1           1          12           1           1          12           1
 AtmWgt=  12.0000000  12.0000000   1.0078250   1.0078250   1.0078250  12.0000000   1.0078250   1.0078250  12.0000000   1.0078250
 NucSpn=           0           0           1           1           1           0           1           1           0           1
 AtZEff=  -0.0000000  -0.0000000  -0.0000000  -0.0000000  -0.0000000  -0.0000000  -0.0000000  -0.0000000  -0.0000000  -0.0000000
 NQMom=    0.0000000   0.0000000   0.0000000   0.0000000   0.0000000   0.0000000   0.0000000   0.0000000   0.0000000   0.0000000
 NMagM=    0.0000000   0.0000000   2.7928460   2.7928460   2.7928460   0.0000000   2.7928460   2.7928460   0.0000000   2.7928460
 AtZNuc=   6.0000000   6.0000000   1.0000000   1.0000000   1.0000000   6.0000000   1.0000000   1.0000000   6.0000000   1.0000000

  Atom        31          32          33
 IAtWgt=           1           1           1
 AtmWgt=   1.0078250   1.0078250   1.0078250
 NucSpn=           1           1           1
 AtZEff=  -0.0000000  -0.0000000  -0.0000000
 NQMom=    0.0000000   0.0000000   0.0000000
 NMagM=    2.7928460   2.7928460   2.7928460
 AtZNuc=   1.0000000   1.0000000   1.0000000
 Leave Link  101 at Mon Dec 17 21:57:10 2018, MaxMem=  2147483648 cpu:               5.1 elap:               0.4
 (Enter /usr/local/shared/gaussian/x86_64_sse4/16-B01/g16/l103.exe)

 GradGradGradGradGradGradGradGradGradGradGradGradGradGradGradGradGradGrad
 Berny optimization.
 Initialization pass.
                           ----------------------------
                           !    Initial Parameters    !
                           ! (Angstroms and Degrees)  !
 --------------------------                            --------------------------
 ! Name  Definition              Value          Derivative Info.                !
 --------------------------------------------------------------------------------
 ! R1    R(1,16)                 1.0921         calculate D2E/DX2 analytically  !
 ! R2    R(2,15)                 1.0942         calculate D2E/DX2 analytically  !
 ! R3    R(3,4)                  1.4745         calculate D2E/DX2 analytically  !
 ! R4    R(3,5)                  1.0849         calculate D2E/DX2 analytically  !
 ! R5    R(3,6)                  1.3988         calculate D2E/DX2 analytically  !
 ! R6    R(4,19)                 1.6471         calculate D2E/DX2 analytically  !
 ! R7    R(4,21)                 1.5331         calculate D2E/DX2 analytically  !
 ! R8    R(4,24)                 1.0951         calculate D2E/DX2 analytically  !
 ! R9    R(6,10)                 1.2664         calculate D2E/DX2 analytically  !
 ! R10   R(6,11)                 1.8475         calculate D2E/DX2 analytically  !
 ! R11   R(7,15)                 1.0916         calculate D2E/DX2 analytically  !
 ! R12   R(8,15)                 1.0946         calculate D2E/DX2 analytically  !
 ! R13   R(9,19)                 1.4802         calculate D2E/DX2 analytically  !
 ! R14   R(9,26)                 1.3936         calculate D2E/DX2 analytically  !
 ! R15   R(9,28)                 1.0831         calculate D2E/DX2 analytically  !
 ! R16   R(11,12)                1.6183         calculate D2E/DX2 analytically  !
 ! R17   R(11,13)                1.6233         calculate D2E/DX2 analytically  !
 ! R18   R(11,14)                1.4943         calculate D2E/DX2 analytically  !
 ! R19   R(12,15)                1.4411         calculate D2E/DX2 analytically  !
 ! R20   R(13,16)                1.4427         calculate D2E/DX2 analytically  !
 ! R21   R(16,17)                1.0937         calculate D2E/DX2 analytically  !
 ! R22   R(16,18)                1.0936         calculate D2E/DX2 analytically  !
 ! R23   R(19,22)                1.5476         calculate D2E/DX2 analytically  !
 ! R24   R(19,25)                1.0946         calculate D2E/DX2 analytically  !
 ! R25   R(20,29)                1.0849         calculate D2E/DX2 analytically  !
 ! R26   R(21,31)                1.0968         calculate D2E/DX2 analytically  !
 ! R27   R(21,32)                1.0961         calculate D2E/DX2 analytically  !
 ! R28   R(21,33)                1.0959         calculate D2E/DX2 analytically  !
 ! R29   R(22,23)                1.1017         calculate D2E/DX2 analytically  !
 ! R30   R(22,27)                1.0915         calculate D2E/DX2 analytically  !
 ! R31   R(22,29)                1.4969         calculate D2E/DX2 analytically  !
 ! R32   R(26,29)                1.3881         calculate D2E/DX2 analytically  !
 ! R33   R(26,30)                1.0831         calculate D2E/DX2 analytically  !
 ! A1    A(4,3,5)              122.0296         calculate D2E/DX2 analytically  !
 ! A2    A(4,3,6)              116.7096         calculate D2E/DX2 analytically  !
 ! A3    A(5,3,6)              121.163          calculate D2E/DX2 analytically  !
 ! A4    A(3,4,19)             109.4095         calculate D2E/DX2 analytically  !
 ! A5    A(3,4,21)             114.7732         calculate D2E/DX2 analytically  !
 ! A6    A(3,4,24)             109.1138         calculate D2E/DX2 analytically  !
 ! A7    A(19,4,21)            110.089          calculate D2E/DX2 analytically  !
 ! A8    A(19,4,24)            103.1248         calculate D2E/DX2 analytically  !
 ! A9    A(21,4,24)            109.6872         calculate D2E/DX2 analytically  !
 ! A10   A(3,6,10)             122.0797         calculate D2E/DX2 analytically  !
 ! A11   A(3,6,11)             122.0273         calculate D2E/DX2 analytically  !
 ! A12   A(10,6,11)            115.2924         calculate D2E/DX2 analytically  !
 ! A13   A(19,9,26)            110.068          calculate D2E/DX2 analytically  !
 ! A14   A(19,9,28)            124.2627         calculate D2E/DX2 analytically  !
 ! A15   A(26,9,28)            125.6652         calculate D2E/DX2 analytically  !
 ! A16   A(6,11,12)            103.1107         calculate D2E/DX2 analytically  !
 ! A17   A(6,11,13)            105.8896         calculate D2E/DX2 analytically  !
 ! A18   A(6,11,14)            115.0087         calculate D2E/DX2 analytically  !
 ! A19   A(12,11,13)           101.1609         calculate D2E/DX2 analytically  !
 ! A20   A(12,11,14)           116.3239         calculate D2E/DX2 analytically  !
 ! A21   A(13,11,14)           113.7435         calculate D2E/DX2 analytically  !
 ! A22   A(11,12,15)           119.7854         calculate D2E/DX2 analytically  !
 ! A23   A(11,13,16)           120.3616         calculate D2E/DX2 analytically  !
 ! A24   A(2,15,7)             110.0978         calculate D2E/DX2 analytically  !
 ! A25   A(2,15,8)             110.1015         calculate D2E/DX2 analytically  !
 ! A26   A(2,15,12)            110.5149         calculate D2E/DX2 analytically  !
 ! A27   A(7,15,8)             109.7908         calculate D2E/DX2 analytically  !
 ! A28   A(7,15,12)            106.1342         calculate D2E/DX2 analytically  !
 ! A29   A(8,15,12)            110.1294         calculate D2E/DX2 analytically  !
 ! A30   A(1,16,13)            106.0231         calculate D2E/DX2 analytically  !
 ! A31   A(1,16,17)            110.1625         calculate D2E/DX2 analytically  !
 ! A32   A(1,16,18)            110.2421         calculate D2E/DX2 analytically  !
 ! A33   A(13,16,17)           110.3881         calculate D2E/DX2 analytically  !
 ! A34   A(13,16,18)           109.7686         calculate D2E/DX2 analytically  !
 ! A35   A(17,16,18)           110.1795         calculate D2E/DX2 analytically  !
 ! A36   A(4,19,9)             111.3831         calculate D2E/DX2 analytically  !
 ! A37   A(4,19,22)            106.0707         calculate D2E/DX2 analytically  !
 ! A38   A(4,19,25)            106.1568         calculate D2E/DX2 analytically  !
 ! A39   A(9,19,22)            102.8035         calculate D2E/DX2 analytically  !
 ! A40   A(9,19,25)            113.9936         calculate D2E/DX2 analytically  !
 ! A41   A(22,19,25)           116.2617         calculate D2E/DX2 analytically  !
 ! A42   A(4,21,31)            111.2877         calculate D2E/DX2 analytically  !
 ! A43   A(4,21,32)            112.5058         calculate D2E/DX2 analytically  !
 ! A44   A(4,21,33)            109.7881         calculate D2E/DX2 analytically  !
 ! A45   A(31,21,32)           107.9493         calculate D2E/DX2 analytically  !
 ! A46   A(31,21,33)           107.7554         calculate D2E/DX2 analytically  !
 ! A47   A(32,21,33)           107.362          calculate D2E/DX2 analytically  !
 ! A48   A(19,22,23)           109.5251         calculate D2E/DX2 analytically  !
 ! A49   A(19,22,27)           114.8864         calculate D2E/DX2 analytically  !
 ! A50   A(19,22,29)           100.4514         calculate D2E/DX2 analytically  !
 ! A51   A(23,22,27)           107.5413         calculate D2E/DX2 analytically  !
 ! A52   A(23,22,29)           109.4886         calculate D2E/DX2 analytically  !
 ! A53   A(27,22,29)           114.7438         calculate D2E/DX2 analytically  !
 ! A54   A(9,26,29)            108.3673         calculate D2E/DX2 analytically  !
 ! A55   A(9,26,30)            125.4153         calculate D2E/DX2 analytically  !
 ! A56   A(29,26,30)           125.4355         calculate D2E/DX2 analytically  !
 ! A57   A(20,29,22)           124.8318         calculate D2E/DX2 analytically  !
 ! A58   A(20,29,26)           125.0223         calculate D2E/DX2 analytically  !
 ! A59   A(22,29,26)           109.3722         calculate D2E/DX2 analytically  !
 ! D1    D(5,3,4,19)          -107.0067         calculate D2E/DX2 analytically  !
 ! D2    D(5,3,4,21)            17.3049         calculate D2E/DX2 analytically  !
 ! D3    D(5,3,4,24)           140.8512         calculate D2E/DX2 analytically  !
 ! D4    D(6,3,4,19)            76.5525         calculate D2E/DX2 analytically  !
 ! D5    D(6,3,4,21)          -159.1359         calculate D2E/DX2 analytically  !
 ! D6    D(6,3,4,24)           -35.5897         calculate D2E/DX2 analytically  !
 ! D7    D(4,3,6,10)            -2.846          calculate D2E/DX2 analytically  !
 ! D8    D(4,3,6,11)          -173.5397         calculate D2E/DX2 analytically  !
 ! D9    D(5,3,6,10)          -179.3198         calculate D2E/DX2 analytically  !
 ! D10   D(5,3,6,11)             9.9865         calculate D2E/DX2 analytically  !
 ! D11   D(3,4,19,9)           -59.6167         calculate D2E/DX2 analytically  !
 ! D12   D(3,4,19,22)           51.5123         calculate D2E/DX2 analytically  !
 ! D13   D(3,4,19,25)          175.7662         calculate D2E/DX2 analytically  !
 ! D14   D(21,4,19,9)          173.3757         calculate D2E/DX2 analytically  !
 ! D15   D(21,4,19,22)         -75.4953         calculate D2E/DX2 analytically  !
 ! D16   D(21,4,19,25)          48.7586         calculate D2E/DX2 analytically  !
 ! D17   D(24,4,19,9)           56.4005         calculate D2E/DX2 analytically  !
 ! D18   D(24,4,19,22)         167.5295         calculate D2E/DX2 analytically  !
 ! D19   D(24,4,19,25)         -68.2166         calculate D2E/DX2 analytically  !
 ! D20   D(3,4,21,31)         -176.3403         calculate D2E/DX2 analytically  !
 ! D21   D(3,4,21,32)          -55.0452         calculate D2E/DX2 analytically  !
 ! D22   D(3,4,21,33)           64.4499         calculate D2E/DX2 analytically  !
 ! D23   D(19,4,21,31)         -52.3887         calculate D2E/DX2 analytically  !
 ! D24   D(19,4,21,32)          68.9064         calculate D2E/DX2 analytically  !
 ! D25   D(19,4,21,33)        -171.5984         calculate D2E/DX2 analytically  !
 ! D26   D(24,4,21,31)          60.4198         calculate D2E/DX2 analytically  !
 ! D27   D(24,4,21,32)        -178.2852         calculate D2E/DX2 analytically  !
 ! D28   D(24,4,21,33)         -58.79           calculate D2E/DX2 analytically  !
 ! D29   D(3,6,11,12)          -28.4761         calculate D2E/DX2 analytically  !
 ! D30   D(3,6,11,13)         -134.3153         calculate D2E/DX2 analytically  !
 ! D31   D(3,6,11,14)           99.1905         calculate D2E/DX2 analytically  !
 ! D32   D(10,6,11,12)         160.2406         calculate D2E/DX2 analytically  !
 ! D33   D(10,6,11,13)          54.4013         calculate D2E/DX2 analytically  !
 ! D34   D(10,6,11,14)         -72.0928         calculate D2E/DX2 analytically  !
 ! D35   D(26,9,19,4)           94.4396         calculate D2E/DX2 analytically  !
 ! D36   D(26,9,19,22)         -18.7548         calculate D2E/DX2 analytically  !
 ! D37   D(26,9,19,25)        -145.4689         calculate D2E/DX2 analytically  !
 ! D38   D(28,9,19,4)          -84.8546         calculate D2E/DX2 analytically  !
 ! D39   D(28,9,19,22)         161.951          calculate D2E/DX2 analytically  !
 ! D40   D(28,9,19,25)          35.2369         calculate D2E/DX2 analytically  !
 ! D41   D(19,9,26,29)           0.9515         calculate D2E/DX2 analytically  !
 ! D42   D(19,9,26,30)        -169.3459         calculate D2E/DX2 analytically  !
 ! D43   D(28,9,26,29)        -179.7665         calculate D2E/DX2 analytically  !
 ! D44   D(28,9,26,30)           9.9361         calculate D2E/DX2 analytically  !
 ! D45   D(6,11,12,15)         176.2125         calculate D2E/DX2 analytically  !
 ! D46   D(13,11,12,15)        -74.3681         calculate D2E/DX2 analytically  !
 ! D47   D(14,11,12,15)         49.377          calculate D2E/DX2 analytically  !
 ! D48   D(6,11,13,16)         -86.8744         calculate D2E/DX2 analytically  !
 ! D49   D(12,11,13,16)        165.8749         calculate D2E/DX2 analytically  !
 ! D50   D(14,11,13,16)         40.3839         calculate D2E/DX2 analytically  !
 ! D51   D(11,12,15,2)         -53.4035         calculate D2E/DX2 analytically  !
 ! D52   D(11,12,15,7)        -172.7558         calculate D2E/DX2 analytically  !
 ! D53   D(11,12,15,8)          68.4653         calculate D2E/DX2 analytically  !
 ! D54   D(11,13,16,1)        -166.9083         calculate D2E/DX2 analytically  !
 ! D55   D(11,13,16,17)        -47.6126         calculate D2E/DX2 analytically  !
 ! D56   D(11,13,16,18)         74.0313         calculate D2E/DX2 analytically  !
 ! D57   D(4,19,22,23)         155.1938         calculate D2E/DX2 analytically  !
 ! D58   D(4,19,22,27)          34.0613         calculate D2E/DX2 analytically  !
 ! D59   D(4,19,22,29)         -89.6329         calculate D2E/DX2 analytically  !
 ! D60   D(9,19,22,23)         -87.7687         calculate D2E/DX2 analytically  !
 ! D61   D(9,19,22,27)         151.0988         calculate D2E/DX2 analytically  !
 ! D62   D(9,19,22,29)          27.4046         calculate D2E/DX2 analytically  !
 ! D63   D(25,19,22,23)         37.4801         calculate D2E/DX2 analytically  !
 ! D64   D(25,19,22,27)        -83.6524         calculate D2E/DX2 analytically  !
 ! D65   D(25,19,22,29)        152.6534         calculate D2E/DX2 analytically  !
 ! D66   D(19,22,29,20)        160.8254         calculate D2E/DX2 analytically  !
 ! D67   D(19,22,29,26)        -28.8457         calculate D2E/DX2 analytically  !
 ! D68   D(23,22,29,20)        -83.9737         calculate D2E/DX2 analytically  !
 ! D69   D(23,22,29,26)         86.3551         calculate D2E/DX2 analytically  !
 ! D70   D(27,22,29,20)         37.0325         calculate D2E/DX2 analytically  !
 ! D71   D(27,22,29,26)       -152.6387         calculate D2E/DX2 analytically  !
 ! D72   D(9,26,29,20)        -171.1738         calculate D2E/DX2 analytically  !
 ! D73   D(9,26,29,22)          18.5201         calculate D2E/DX2 analytically  !
 ! D74   D(30,26,29,20)         -0.8788         calculate D2E/DX2 analytically  !
 ! D75   D(30,26,29,22)       -171.1849         calculate D2E/DX2 analytically  !
 --------------------------------------------------------------------------------
 Trust Radius=3.00D-01 FncErr=1.00D-07 GrdErr=1.00D-07 EigMax=2.50D+02 EigMin=1.00D-04
 Number of steps in this run=      2 maximum allowed number of steps=      2.
 GradGradGradGradGradGradGradGradGradGradGradGradGradGradGradGradGradGrad

 Leave Link  103 at Mon Dec 17 21:57:10 2018, MaxMem=  2147483648 cpu:               0.5 elap:               0.1
 (Enter /usr/local/shared/gaussian/x86_64_sse4/16-B01/g16/l202.exe)
                          Input orientation:                          
 ---------------------------------------------------------------------
 Center     Atomic      Atomic             Coordinates (Angstroms)
 Number     Number       Type             X           Y           Z
 ---------------------------------------------------------------------
      1          1           0        4.040209   -1.802703   -1.760852
      2          1           0        3.218272    1.771483    1.882238
      3          6           0       -0.907960    0.912352   -0.541193
      4          6           0       -2.236644    0.618928   -1.109289
      5          1           0       -0.667594    1.877781   -0.108601
      6          6           0        0.059770   -0.091306   -0.654298
      7          1           0        3.017645    3.249093    0.889204
      8          1           0        4.032949    1.904389    0.289309
      9          6           0       -2.326092   -1.664134    0.099538
     10          8           0       -0.198444   -1.219797   -1.167738
     11         15           0        1.714402    0.047315    0.155754
     12          8           0        1.962248    1.645443    0.213203
     13          8           0        2.797997   -0.398519   -0.967708
     14          8           0        1.849002   -0.690982    1.447907
     15          6           0        3.138472    2.164499    0.864181
     16          6           0        3.145941   -1.788696   -1.134082
     17          1           0        3.358262   -2.247073   -0.164004
     18          1           0        2.327696   -2.317945   -1.630409
     19          6           0       -3.054202   -0.390392   -0.096515
     20          1           0       -1.139934    0.049515    2.652749
     21          6           0       -3.088686    1.854507   -1.422142
     22          6           0       -2.986897    0.262360    1.305062
     23          1           0       -3.838734   -0.082004    1.912908
     24          1           0       -2.114081    0.016235   -2.015404
     25          1           0       -4.053251   -0.510543   -0.527374
     26          6           0       -1.536564   -1.592109    1.245648
     27          1           0       -3.002889    1.353788    1.304720
     28          1           0       -2.396792   -2.515650   -0.566143
     29          6           0       -1.722597   -0.345573    1.827313
     30          1           0       -0.782056   -2.313548    1.534426
     31          1           0       -4.085749    1.570410   -1.779980
     32          1           0       -3.215824    2.507914   -0.551348
     33          1           0       -2.607825    2.447359   -2.208401
 ---------------------------------------------------------------------
                    Distance matrix (angstroms):
                    1          2          3          4          5
     1  H    0.000000
     2  H    5.169380   0.000000
     3  C    5.774380   4.861781   0.000000
     4  C    6.759269   6.327221   1.474528   0.000000
     5  H    6.199944   4.367459   1.084880   2.246777   0.000000
     6  C    4.471827   4.458714   1.398794   2.446419   2.168905
     7  H    5.795608   1.791563   4.787146   6.206391   4.056735
     8  H    4.236242   1.794097   5.107490   6.551052   4.717430
     9  C    6.634006   6.761764   3.009969   2.584886   3.916516
    10  O    4.319461   5.470289   2.332816   2.745648   3.307093
    11  P    3.536287   2.866204   2.847948   4.187820   3.015691
    12  O    4.483807   2.092644   3.056899   4.520333   2.659625
    13  O    2.035657   3.606623   3.954038   5.138371   4.234375
    14  O    4.041466   2.850838   3.758728   4.994759   3.918484
    15  C    4.841758   1.094198   4.462797   5.930872   3.938864
    16  C    1.092132   4.666722   4.907269   5.896566   5.388665
    17  H    1.792328   4.511707   5.322113   6.356925   5.764114
    18  H    1.793095   5.463995   4.700072   5.452521   5.375107
    19  C    7.422621   6.923373   2.549752   1.647070   3.292515
    20  H    7.052976   4.748981   3.316559   3.959790   3.345253
    21  C    8.019417   7.120642   2.533632   1.533137   2.754563
    22  C    7.940059   6.412075   2.855368   2.553255   3.160252
    23  H    8.862001   7.296416   3.949784   3.491658   4.240682
    24  H    6.422509   6.834215   2.105006   1.095128   3.032091
    25  H    8.288259   7.993054   3.452199   2.216843   4.164389
    26  C    6.339068   5.858964   3.140106   3.305227   3.824818
    27  H    8.304601   6.261856   2.826834   2.637156   2.779505
    28  H    6.585636   7.476832   3.737438   3.185315   4.743596
    29  C    6.943205   5.375605   2.802825   3.133391   3.131150
    30  H    5.862939   5.728095   3.838030   4.207668   4.503319
    31  H    8.798264   8.173187   3.473611   2.185025   3.817299
    32  H    8.526097   6.918256   2.805737   2.199627   2.662061
    33  H    7.903144   7.150772   2.832908   2.165406   2.915146
                    6          7          8          9         10
     6  C    0.000000
     7  H    4.721196   0.000000
     8  H    4.545255   1.788559   0.000000
     9  C    2.955401   7.301979   7.294366   0.000000
    10  O    1.266407   5.877518   5.457858   2.516011   0.000000
    11  P    1.847487   3.533804   2.973587   4.388372   2.648808
    12  O    2.718139   2.035321   2.088216   5.418125   3.845151
    13  O    2.773174   4.098956   2.899756   5.384894   3.113385
    14  O    2.824930   4.147537   3.584400   4.494055   3.363522
    15  C    4.107656   1.091590   1.094634   6.715994   5.168865
    16  C    3.554684   5.430420   4.056070   5.610747   3.392593
    17  H    3.970865   5.606524   4.230287   5.720241   3.835744
    18  H    3.324786   6.149503   4.941792   5.007787   2.793094
    19  C    3.177640   7.147364   7.459396   1.480203   3.160820
    20  H    3.520750   5.534695   5.982067   3.295823   4.134450
    21  C    3.780020   6.676411   7.324564   3.908695   4.227241
    22  C    3.639554   6.719229   7.280539   2.366713   4.010860
    23  H    4.667865   7.691171   8.279204   2.842452   4.902720
    24  H    2.567061   6.724785   6.831018   2.709533   2.432278
    25  H    4.136280   8.132597   8.478532   2.169532   3.971479
    26  C    2.900084   6.656208   6.645266   1.393596   2.784531
    27  H    3.912279   6.325477   7.130024   3.319393   4.538866
    28  H    3.452523   8.041544   7.849211   1.083148   2.621810
    29  C    3.065922   6.022588   6.368210   2.255663   3.472411
    30  H    3.230719   6.767349   6.521164   2.205604   2.972976
    31  H    4.605843   7.771790   8.384912   4.134157   4.824027
    32  H    4.182829   6.440549   7.322271   4.315236   4.835323
    33  H    3.997014   6.471773   7.115705   4.723381   4.509560
                   11         12         13         14         15
    11  P    0.000000
    12  O    1.618252   0.000000
    13  O    1.623303   2.504158   0.000000
    14  O    1.494275   2.645033   2.611766   0.000000
    15  C    2.648077   1.441074   3.168722   3.187043   0.000000
    16  C    2.661563   3.874225   1.442684   3.090905   4.429544
    17  H    2.840552   4.152448   2.092125   2.701396   4.535134
    18  H    3.026708   4.386445   2.084359   3.514568   5.193519
    19  C    4.795291   5.422667   5.916695   5.149466   6.767541
    20  H    3.792390   4.256983   5.368030   3.306617   5.096753
    21  C    5.368925   5.313191   6.319468   6.252796   6.640848
    22  C    4.844519   5.253486   6.250379   4.931043   6.429048
    23  H    5.825945   6.286848   7.241846   5.739113   7.404594
    24  H    4.401383   4.923156   5.039662   5.310434   6.363675
    25  H    5.834697   6.432959   6.866298   6.226627   7.798279
    26  C    3.800574   4.877435   5.011190   3.509273   6.009458
    27  H    5.027905   5.092058   6.471846   5.267109   6.210285
    28  H    4.898147   6.076455   5.623996   5.041089   7.388421
    29  C    3.842061   4.488605   5.315140   3.608265   5.555005
    30  H    3.702258   4.995042   4.769150   3.092357   5.989380
    31  H    6.301479   6.368412   7.205722   7.124213   7.715821
    32  H    5.555328   5.304793   6.692290   6.315253   6.519105
    33  H    5.480063   5.233813   6.233879   6.563618   6.522323
                   16         17         18         19         20
    16  C    0.000000
    17  H    1.093728   0.000000
    18  H    1.093604   1.793720   0.000000
    19  C    6.439998   6.676190   5.918878   0.000000
    20  H    6.007315   5.782922   5.997897   3.378815   0.000000
    21  C    7.226789   7.743966   6.840316   2.607307   4.864192
    22  C    6.911437   6.979717   6.596959   1.547589   2.296266
    23  H    7.809138   7.797297   7.455158   2.179077   2.801461
    24  H    5.630483   6.204578   5.032494   2.175157   4.768828
    25  H    7.336902   7.620899   6.723085   1.094612   4.349053
    26  C    5.256198   5.135700   4.871452   2.355579   2.198222
    27  H    7.323324   7.455709   7.107161   2.237913   2.643655
    28  H    5.618977   5.775335   4.846910   2.273645   4.303607
    29  C    5.878361   5.778942   5.678993   2.340148   1.084866
    30  H    4.777611   4.475636   4.436976   3.394281   2.638710
    31  H    7.999882   8.520437   7.501597   2.782605   5.535344
    32  H    7.698863   8.122718   7.428587   2.938226   4.540846
    33  H    7.225244   7.862026   6.884879   3.565410   5.615616
                   21         22         23         24         25
    21  C    0.000000
    22  C    3.159578   0.000000
    23  H    3.928766   1.101676   0.000000
    24  H    2.163575   3.442075   4.291353   0.000000
    25  H    2.706373   2.256615   2.486894   2.500422   0.000000
    26  C    4.626591   2.355006   2.832956   3.681678   3.262990
    27  H    2.773780   1.091545   1.769189   3.688123   2.817012
    28  H    4.506631   3.401025   3.761319   2.930994   2.601118
    29  C    4.155179   1.496925   2.134205   3.879515   3.317185
    30  H    5.606650   3.398416   3.803461   4.450109   4.266446
    31  H    1.096765   3.526465   4.053259   2.521579   2.429083
    32  H    1.096078   2.922529   3.628808   3.092857   3.132561
    33  H    1.095858   4.154797   4.989790   2.488251   3.696524
                   26         27         28         29         30
    26  C    0.000000
    27  H    3.291186   0.000000
    28  H    2.208055   4.340511   0.000000
    29  C    1.388090   2.190908   3.300364   0.000000
    30  H    1.083120   4.293509   2.657180   2.200756   0.000000
    31  H    5.065007   3.276413   4.584960   4.718903   6.081513
    32  H    4.781140   2.195982   5.089914   4.003766   5.789661
    33  H    5.421748   3.700539   5.231922   4.987092   6.325221
                   31         32         33
    31  H    0.000000
    32  H    1.773477   0.000000
    33  H    1.771114   1.766113   0.000000
 Stoichiometry    C11H17O4P
 Framework group  C1[X(C11H17O4P)]
 Deg. of freedom    93
 Full point group                 C1      NOp   1
 Largest Abelian subgroup         C1      NOp   1
 Largest concise Abelian subgroup C1      NOp   1
                         Standard orientation:                         
 ---------------------------------------------------------------------
 Center     Atomic      Atomic             Coordinates (Angstroms)
 Number     Number       Type             X           Y           Z
 ---------------------------------------------------------------------
      1          1           0        4.040209   -1.802703   -1.760852
      2          1           0        3.218272    1.771483    1.882238
      3          6           0       -0.907960    0.912352   -0.541193
      4          6           0       -2.236644    0.618928   -1.109289
      5          1           0       -0.667594    1.877781   -0.108601
      6          6           0        0.059770   -0.091306   -0.654298
      7          1           0        3.017645    3.249093    0.889204
      8          1           0        4.032949    1.904389    0.289309
      9          6           0       -2.326092   -1.664134    0.099538
     10          8           0       -0.198444   -1.219797   -1.167738
     11         15           0        1.714402    0.047315    0.155754
     12          8           0        1.962248    1.645443    0.213203
     13          8           0        2.797997   -0.398519   -0.967708
     14          8           0        1.849002   -0.690982    1.447907
     15          6           0        3.138472    2.164499    0.864181
     16          6           0        3.145941   -1.788696   -1.134082
     17          1           0        3.358262   -2.247073   -0.164004
     18          1           0        2.327696   -2.317945   -1.630409
     19          6           0       -3.054202   -0.390392   -0.096515
     20          1           0       -1.139934    0.049515    2.652749
     21          6           0       -3.088686    1.854507   -1.422142
     22          6           0       -2.986897    0.262360    1.305062
     23          1           0       -3.838734   -0.082004    1.912908
     24          1           0       -2.114081    0.016235   -2.015404
     25          1           0       -4.053251   -0.510543   -0.527374
     26          6           0       -1.536564   -1.592109    1.245648
     27          1           0       -3.002889    1.353788    1.304720
     28          1           0       -2.396792   -2.515650   -0.566143
     29          6           0       -1.722597   -0.345573    1.827313
     30          1           0       -0.782056   -2.313548    1.534426
     31          1           0       -4.085749    1.570410   -1.779980
     32          1           0       -3.215824    2.507914   -0.551348
     33          1           0       -2.607825    2.447359   -2.208401
 ---------------------------------------------------------------------
 Rotational constants (GHZ):           0.8146133           0.3324518           0.3123643
 Leave Link  202 at Mon Dec 17 21:57:10 2018, MaxMem=  2147483648 cpu:               0.9 elap:               0.1
 (Enter /usr/local/shared/gaussian/x86_64_sse4/16-B01/g16/l301.exe)
 Standard basis: 6-31+G(d) (6D, 7F)
 Ernie: Thresh=  0.10000D-02 Tol=  0.10000D-05 Strict=F.
 There are   342 symmetry adapted cartesian basis functions of A   symmetry.
 There are   342 symmetry adapted basis functions of A   symmetry.
   342 basis functions,   604 primitive gaussians,   342 cartesian basis functions
    65 alpha electrons       65 beta electrons
       nuclear repulsion energy      1355.7407846469 Hartrees.
 IExCor=  402 DFT=T Ex+Corr=B3LYP ExCW=0 ScaHFX=  0.200000
 ScaDFX=  0.800000  0.720000  1.000000  0.810000 ScalE2=  1.000000  1.000000
 IRadAn=      5 IRanWt=     -1 IRanGd=            0 ICorTp=0 IEmpDi=  4
 NAtoms=   33 NActive=   33 NUniq=   33 SFac= 1.00D+00 NAtFMM=   60 NAOKFM=F Big=F
 Integral buffers will be    131072 words long.
 Raffenetti 2 integral format.
 Two-electron integral symmetry is turned on.
 Leave Link  301 at Mon Dec 17 21:57:10 2018, MaxMem=  2147483648 cpu:               1.2 elap:               0.1
 (Enter /usr/local/shared/gaussian/x86_64_sse4/16-B01/g16/l302.exe)
 NPDir=0 NMtPBC=     1 NCelOv=     1 NCel=       1 NClECP=     1 NCelD=      1
         NCelK=      1 NCelE2=     1 NClLst=     1 CellRange=     0.0.
 One-electron integrals computed using PRISM.
 One-electron integral symmetry used in STVInt
 NBasis=   342 RedAO= T EigKep=  3.91D-06  NBF=   342
 NBsUse=   342 1.00D-06 EigRej= -1.00D+00 NBFU=   342
 Precomputing XC quadrature grid using
 IXCGrd= 4 IRadAn=           5 IRanWt=          -1 IRanGd=           0 AccXCQ= 0.00D+00.
 Generated NRdTot=       0 NPtTot=           0 NUsed=           0 NTot=          32
 NSgBfM=   341   341   341   341   341 MxSgAt=    33 MxSgA2=    33.
 Leave Link  302 at Mon Dec 17 21:57:13 2018, MaxMem=  2147483648 cpu:              30.1 elap:               2.5
 (Enter /usr/local/shared/gaussian/x86_64_sse4/16-B01/g16/l303.exe)
 DipDrv:  MaxL=1.
 Leave Link  303 at Mon Dec 17 21:57:13 2018, MaxMem=  2147483648 cpu:               2.5 elap:               0.2
 (Enter /usr/local/shared/gaussian/x86_64_sse4/16-B01/g16/l401.exe)
 ExpMin= 3.48D-02 ExpMax= 1.94D+04 ExpMxC= 2.91D+03 IAcc=3 IRadAn=         5 AccDes= 0.00D+00
 Harris functional with IExCor=  402 and IRadAn=       5 diagonalized for initial guess.
 HarFok:  IExCor=  402 AccDes= 0.00D+00 IRadAn=         5 IDoV= 1 UseB2=F ITyADJ=14
 ICtDFT=  3500011 ScaDFX=  1.000000  1.000000  1.000000  1.000000
 FoFCou: FMM=F IPFlag=           0 FMFlag=      100000 FMFlg1=           0
         NFxFlg=           0 DoJE=T BraDBF=F KetDBF=T FulRan=T
         wScrn=  0.000000 ICntrl=       500 IOpCl=  0 I1Cent=   200000004 NGrid=           0
         NMat0=    1 NMatS0=      1 NMatT0=    0 NMatD0=    1 NMtDS0=    0 NMtDT0=    0
 Petite list used in FoFCou.
 Harris En= -1071.70440694533    
 JPrj=0 DoOrth=F DoCkMO=F.
 Leave Link  401 at Mon Dec 17 21:57:18 2018, MaxMem=  2147483648 cpu:              61.5 elap:               5.2
 (Enter /usr/local/shared/gaussian/x86_64_sse4/16-B01/g16/l502.exe)
 Integral symmetry usage will be decided dynamically.
 Closed shell SCF:
 Using DIIS extrapolation, IDIIS=  1040.
 NGot=  2147483648 LenX=  2147240550 LenY=  2147123145
 Requested convergence on RMS density matrix=1.00D-08 within 128 cycles.
 Requested convergence on MAX density matrix=1.00D-06.
 Requested convergence on             energy=1.00D-06.
 No special actions if energy rises.
 Fock matrices will be formed incrementally for  20 cycles.

 Cycle   1  Pass 1  IDiag  1:
 FoFJK:  IHMeth= 1 ICntrl=       0 DoSepK=F KAlg= 0 I1Cent=           0 FoldK=F
 IRaf= 900000000 NMat=       1 IRICut=       1 DoRegI=T DoRafI=F ISym2E= 0 IDoP0=0 IntGTp=1.
 FoFCou: FMM=F IPFlag=           0 FMFlag=      100000 FMFlg1=           0
         NFxFlg=           0 DoJE=F BraDBF=F KetDBF=F FulRan=T
         wScrn=  0.000000 ICntrl=         0 IOpCl=  0 I1Cent=           0 NGrid=           0
         NMat0=    1 NMatS0=      1 NMatT0=    0 NMatD0=    1 NMtDS0=    0 NMtDT0=    0
 Symmetry not used in FoFCou.
 E= -1071.12652321023    
 DIIS: error= 1.83D-02 at cycle   1 NSaved=   1.
 NSaved= 1 IEnMin= 1 EnMin= -1071.12652321023     IErMin= 1 ErrMin= 1.83D-02
 ErrMax= 1.83D-02  0.00D+00 EMaxC= 1.00D-01 BMatC= 5.83D-01 BMatP= 5.83D-01
 IDIUse=3 WtCom= 8.17D-01 WtEn= 1.83D-01
 Coeff-Com:  0.100D+01
 Coeff-En:   0.100D+01
 Coeff:      0.100D+01
 Gap=     0.076 Goal=   None    Shift=    0.000
 GapD=    0.076 DampG=0.500 DampE=0.500 DampFc=0.2500 IDamp=-1.
 Damping current iteration by 2.50D-01
 RMSDP=9.00D-02 MaxDP=1.30D+01              OVMax= 4.59D-01

 Cycle   2  Pass 1  IDiag  1:
 RMSU=  1.52D-02    CP:  1.34D+00
 E= -1071.30489767638     Delta-E=       -0.178374466143 Rises=F Damp=T
 DIIS: error= 1.01D-02 at cycle   2 NSaved=   2.
 NSaved= 2 IEnMin= 2 EnMin= -1071.30489767638     IErMin= 2 ErrMin= 1.01D-02
 ErrMax= 1.01D-02  0.00D+00 EMaxC= 1.00D-01 BMatC= 1.04D-01 BMatP= 5.83D-01
 IDIUse=3 WtCom= 8.99D-01 WtEn= 1.01D-01
 Coeff-Com: -0.476D+00 0.148D+01
 Coeff-En:   0.000D+00 0.100D+01
 Coeff:     -0.428D+00 0.143D+01
 Gap=     0.163 Goal=   None    Shift=    0.000
 RMSDP=1.49D-02 MaxDP=2.23D+00 DE=-1.78D-01 OVMax= 3.90D-01

 Cycle   3  Pass 1  IDiag  1:
 RMSU=  7.02D-03    CP:  1.13D+00  4.49D-01
 E= -1071.55007016407     Delta-E=       -0.245172487697 Rises=F Damp=F
 DIIS: error= 1.20D-02 at cycle   3 NSaved=   3.
 NSaved= 3 IEnMin= 3 EnMin= -1071.55007016407     IErMin= 2 ErrMin= 1.01D-02
 ErrMax= 1.20D-02  0.00D+00 EMaxC= 1.00D-01 BMatC= 1.03D-01 BMatP= 1.04D-01
 IDIUse=3 WtCom= 8.80D-01 WtEn= 1.20D-01
 Coeff-Com: -0.365D+00 0.959D+00 0.406D+00
 Coeff-En:   0.000D+00 0.000D+00 0.100D+01
 Coeff:     -0.321D+00 0.844D+00 0.477D+00
 Gap=     0.114 Goal=   None    Shift=    0.000
 RMSDP=1.02D-02 MaxDP=1.43D+00 DE=-2.45D-01 OVMax= 1.87D-01

 Cycle   4  Pass 1  IDiag  1:
 RMSU=  7.84D-03    CP:  1.03D+00  5.91D-01  4.67D-01
 E= -1071.61944225159     Delta-E=       -0.069372087512 Rises=F Damp=F
 DIIS: error= 6.12D-03 at cycle   4 NSaved=   4.
 NSaved= 4 IEnMin= 4 EnMin= -1071.61944225159     IErMin= 4 ErrMin= 6.12D-03
 ErrMax= 6.12D-03  0.00D+00 EMaxC= 1.00D-01 BMatC= 2.80D-02 BMatP= 1.03D-01
 IDIUse=3 WtCom= 9.39D-01 WtEn= 6.12D-02
 Coeff-Com: -0.135D+00 0.326D+00 0.336D+00 0.473D+00
 Coeff-En:   0.000D+00 0.000D+00 0.259D+00 0.741D+00
 Coeff:     -0.127D+00 0.306D+00 0.331D+00 0.489D+00
 Gap=     0.133 Goal=   None    Shift=    0.000
 RMSDP=4.55D-03 MaxDP=4.83D-01 DE=-6.94D-02 OVMax= 9.24D-02

 Cycle   5  Pass 1  IDiag  1:
 RMSU=  1.94D-03    CP:  1.03D+00  4.68D-01  6.24D-01  5.53D-01
 E= -1071.64039658888     Delta-E=       -0.020954337298 Rises=F Damp=F
 DIIS: error= 2.49D-03 at cycle   5 NSaved=   5.
 NSaved= 5 IEnMin= 5 EnMin= -1071.64039658888     IErMin= 5 ErrMin= 2.49D-03
 ErrMax= 2.49D-03  0.00D+00 EMaxC= 1.00D-01 BMatC= 4.70D-03 BMatP= 2.80D-02
 IDIUse=3 WtCom= 9.75D-01 WtEn= 2.49D-02
 Coeff-Com: -0.444D-01 0.924D-01 0.172D+00 0.358D+00 0.422D+00
 Coeff-En:   0.000D+00 0.000D+00 0.000D+00 0.175D+00 0.825D+00
 Coeff:     -0.433D-01 0.901D-01 0.168D+00 0.354D+00 0.432D+00
 Gap=     0.121 Goal=   None    Shift=    0.000
 RMSDP=1.75D-03 MaxDP=2.57D-01 DE=-2.10D-02 OVMax= 3.31D-02

 Cycle   6  Pass 1  IDiag  1:
 RMSU=  5.71D-04    CP:  1.05D+00  5.34D-01  6.24D-01  6.44D-01  6.25D-01
 E= -1071.64456529728     Delta-E=       -0.004168708393 Rises=F Damp=F
 DIIS: error= 6.39D-04 at cycle   6 NSaved=   6.
 NSaved= 6 IEnMin= 6 EnMin= -1071.64456529728     IErMin= 6 ErrMin= 6.39D-04
 ErrMax= 6.39D-04  0.00D+00 EMaxC= 1.00D-01 BMatC= 3.61D-04 BMatP= 4.70D-03
 IDIUse=3 WtCom= 9.94D-01 WtEn= 6.39D-03
 Coeff-Com: -0.929D-02 0.135D-01 0.500D-01 0.137D+00 0.266D+00 0.544D+00
 Coeff-En:   0.000D+00 0.000D+00 0.000D+00 0.000D+00 0.431D-01 0.957D+00
 Coeff:     -0.923D-02 0.134D-01 0.497D-01 0.136D+00 0.264D+00 0.546D+00
 Gap=     0.122 Goal=   None    Shift=    0.000
 RMSDP=4.81D-04 MaxDP=6.59D-02 DE=-4.17D-03 OVMax= 7.16D-03

 Cycle   7  Pass 1  IDiag  1:
 RMSU=  2.64D-04    CP:  1.04D+00  5.21D-01  6.26D-01  6.53D-01  6.31D-01
                    CP:  7.03D-01
 E= -1071.64481798730     Delta-E=       -0.000252690022 Rises=F Damp=F
 DIIS: error= 2.71D-04 at cycle   7 NSaved=   7.
 NSaved= 7 IEnMin= 7 EnMin= -1071.64481798730     IErMin= 7 ErrMin= 2.71D-04
 ErrMax= 2.71D-04  0.00D+00 EMaxC= 1.00D-01 BMatC= 5.16D-05 BMatP= 3.61D-04
 IDIUse=3 WtCom= 9.97D-01 WtEn= 2.71D-03
 Coeff-Com: -0.101D-02-0.115D-02 0.893D-02 0.352D-01 0.111D+00 0.344D+00
 Coeff-Com:  0.504D+00
 Coeff-En:   0.000D+00 0.000D+00 0.000D+00 0.000D+00 0.000D+00 0.112D+00
 Coeff-En:   0.888D+00
 Coeff:     -0.101D-02-0.114D-02 0.890D-02 0.351D-01 0.110D+00 0.343D+00
 Coeff:      0.505D+00
 Gap=     0.122 Goal=   None    Shift=    0.000
 RMSDP=2.05D-04 MaxDP=2.14D-02 DE=-2.53D-04 OVMax= 4.46D-03

 Cycle   8  Pass 1  IDiag  1:
 RMSU=  1.21D-04    CP:  1.04D+00  5.26D-01  6.21D-01  6.58D-01  6.42D-01
                    CP:  7.22D-01  6.98D-01
 E= -1071.64485911740     Delta-E=       -0.000041130100 Rises=F Damp=F
 DIIS: error= 9.81D-05 at cycle   8 NSaved=   8.
 NSaved= 8 IEnMin= 8 EnMin= -1071.64485911740     IErMin= 8 ErrMin= 9.81D-05
 ErrMax= 9.81D-05  0.00D+00 EMaxC= 1.00D-01 BMatC= 4.61D-06 BMatP= 5.16D-05
 IDIUse=1 WtCom= 1.00D+00 WtEn= 0.00D+00
 Coeff-Com:  0.152D-03-0.174D-02 0.141D-02 0.986D-02 0.475D-01 0.168D+00
 Coeff-Com:  0.308D+00 0.467D+00
 Coeff:      0.152D-03-0.174D-02 0.141D-02 0.986D-02 0.475D-01 0.168D+00
 Coeff:      0.308D+00 0.467D+00
 Gap=     0.122 Goal=   None    Shift=    0.000
 RMSDP=1.29D-04 MaxDP=1.43D-02 DE=-4.11D-05 OVMax= 2.18D-03

 Cycle   9  Pass 1  IDiag  1:
 RMSU=  3.33D-05    CP:  1.04D+00  5.21D-01  6.26D-01  6.53D-01  6.42D-01
                    CP:  7.17D-01  7.21D-01  5.94D-01
 E= -1071.64486366421     Delta-E=       -0.000004546811 Rises=F Damp=F
 DIIS: error= 3.88D-05 at cycle   9 NSaved=   9.
 NSaved= 9 IEnMin= 9 EnMin= -1071.64486366421     IErMin= 9 ErrMin= 3.88D-05
 ErrMax= 3.88D-05  0.00D+00 EMaxC= 1.00D-01 BMatC= 9.91D-07 BMatP= 4.61D-06
 IDIUse=1 WtCom= 1.00D+00 WtEn= 0.00D+00
 Coeff-Com:  0.269D-03-0.744D-03-0.847D-03-0.960D-03 0.924D-02 0.427D-01
 Coeff-Com:  0.102D+00 0.330D+00 0.518D+00
 Coeff:      0.269D-03-0.744D-03-0.847D-03-0.960D-03 0.924D-02 0.427D-01
 Coeff:      0.102D+00 0.330D+00 0.518D+00
 Gap=     0.122 Goal=   None    Shift=    0.000
 RMSDP=2.93D-05 MaxDP=2.57D-03 DE=-4.55D-06 OVMax= 7.77D-04

 Cycle  10  Pass 1  IDiag  1:
 RMSU=  1.03D-05    CP:  1.04D+00  5.22D-01  6.24D-01  6.54D-01  6.46D-01
                    CP:  7.28D-01  7.35D-01  6.71D-01  7.20D-01
 E= -1071.64486475142     Delta-E=       -0.000001087209 Rises=F Damp=F
 DIIS: error= 5.74D-06 at cycle  10 NSaved=  10.
 NSaved=10 IEnMin=10 EnMin= -1071.64486475142     IErMin=10 ErrMin= 5.74D-06
 ErrMax= 5.74D-06  0.00D+00 EMaxC= 1.00D-01 BMatC= 4.97D-08 BMatP= 9.91D-07
 IDIUse=1 WtCom= 1.00D+00 WtEn= 0.00D+00
 Coeff-Com:  0.942D-04-0.163D-03-0.566D-03-0.151D-02 0.798D-03 0.783D-02
 Coeff-Com:  0.270D-01 0.133D+00 0.280D+00 0.554D+00
 Coeff:      0.942D-04-0.163D-03-0.566D-03-0.151D-02 0.798D-03 0.783D-02
 Coeff:      0.270D-01 0.133D+00 0.280D+00 0.554D+00
 Gap=     0.122 Goal=   None    Shift=    0.000
 RMSDP=7.42D-06 MaxDP=9.99D-04 DE=-1.09D-06 OVMax= 8.00D-05

 Cycle  11  Pass 1  IDiag  1:
 RMSU=  2.75D-06    CP:  1.04D+00  5.22D-01  6.24D-01  6.53D-01  6.46D-01
                    CP:  7.27D-01  7.26D-01  6.90D-01  7.68D-01  5.96D-01
 E= -1071.64486480166     Delta-E=       -0.000000050240 Rises=F Damp=F
 DIIS: error= 1.47D-06 at cycle  11 NSaved=  11.
 NSaved=11 IEnMin=11 EnMin= -1071.64486480166     IErMin=11 ErrMin= 1.47D-06
 ErrMax= 1.47D-06  0.00D+00 EMaxC= 1.00D-01 BMatC= 3.20D-09 BMatP= 4.97D-08
 IDIUse=1 WtCom= 1.00D+00 WtEn= 0.00D+00
 Coeff-Com:  0.625D-05 0.523D-05-0.175D-03-0.564D-03-0.396D-03-0.452D-03
 Coeff-Com:  0.254D-02 0.250D-01 0.787D-01 0.247D+00 0.648D+00
 Coeff:      0.625D-05 0.523D-05-0.175D-03-0.564D-03-0.396D-03-0.452D-03
 Coeff:      0.254D-02 0.250D-01 0.787D-01 0.247D+00 0.648D+00
 Gap=     0.122 Goal=   None    Shift=    0.000
 RMSDP=2.42D-06 MaxDP=1.84D-04 DE=-5.02D-08 OVMax= 3.35D-05

 Cycle  12  Pass 1  IDiag  1:
 RMSU=  1.11D-06    CP:  1.04D+00  5.22D-01  6.24D-01  6.54D-01  6.46D-01
                    CP:  7.27D-01  7.30D-01  6.90D-01  7.75D-01  6.31D-01
                    CP:  8.39D-01
 E= -1071.64486480530     Delta-E=       -0.000000003639 Rises=F Damp=F
 DIIS: error= 6.29D-07 at cycle  12 NSaved=  12.
 NSaved=12 IEnMin=12 EnMin= -1071.64486480530     IErMin=12 ErrMin= 6.29D-07
 ErrMax= 6.29D-07  0.00D+00 EMaxC= 1.00D-01 BMatC= 5.63D-10 BMatP= 3.20D-09
 IDIUse=1 WtCom= 1.00D+00 WtEn= 0.00D+00
 Coeff-Com: -0.133D-04 0.279D-04-0.203D-04-0.826D-04-0.327D-03-0.141D-02
 Coeff-Com: -0.250D-02-0.766D-02 0.507D-03 0.389D-01 0.324D+00 0.649D+00
 Coeff:     -0.133D-04 0.279D-04-0.203D-04-0.826D-04-0.327D-03-0.141D-02
 Coeff:     -0.250D-02-0.766D-02 0.507D-03 0.389D-01 0.324D+00 0.649D+00
 Gap=     0.122 Goal=   None    Shift=    0.000
 RMSDP=7.85D-07 MaxDP=5.27D-05 DE=-3.64D-09 OVMax= 1.67D-05

 Cycle  13  Pass 1  IDiag  1:
 RMSU=  3.79D-07    CP:  1.04D+00  5.22D-01  6.25D-01  6.54D-01  6.46D-01
                    CP:  7.27D-01  7.30D-01  6.88D-01  7.81D-01  6.39D-01
                    CP:  9.04D-01  9.58D-01
 E= -1071.64486480589     Delta-E=       -0.000000000592 Rises=F Damp=F
 DIIS: error= 2.78D-07 at cycle  13 NSaved=  13.
 NSaved=13 IEnMin=13 EnMin= -1071.64486480589     IErMin=13 ErrMin= 2.78D-07
 ErrMax= 2.78D-07  0.00D+00 EMaxC= 1.00D-01 BMatC= 9.55D-11 BMatP= 5.63D-10
 IDIUse=1 WtCom= 1.00D+00 WtEn= 0.00D+00
 Coeff-Com: -0.914D-05 0.166D-04 0.624D-05 0.147D-04-0.155D-03-0.787D-03
 Coeff-Com: -0.173D-02-0.753D-02-0.816D-02-0.677D-02 0.117D+00 0.371D+00
 Coeff-Com:  0.538D+00
 Coeff:     -0.914D-05 0.166D-04 0.624D-05 0.147D-04-0.155D-03-0.787D-03
 Coeff:     -0.173D-02-0.753D-02-0.816D-02-0.677D-02 0.117D+00 0.371D+00
 Coeff:      0.538D+00
 Gap=     0.122 Goal=   None    Shift=    0.000
 RMSDP=3.49D-07 MaxDP=4.44D-05 DE=-5.92D-10 OVMax= 5.65D-06

 Cycle  14  Pass 1  IDiag  1:
 RMSU=  1.23D-07    CP:  1.04D+00  5.22D-01  6.25D-01  6.54D-01  6.46D-01
                    CP:  7.27D-01  7.30D-01  6.88D-01  7.82D-01  6.46D-01
                    CP:  9.13D-01  9.65D-01  8.67D-01
 E= -1071.64486480598     Delta-E=       -0.000000000086 Rises=F Damp=F
 DIIS: error= 8.68D-08 at cycle  14 NSaved=  14.
 NSaved=14 IEnMin=14 EnMin= -1071.64486480598     IErMin=14 ErrMin= 8.68D-08
 ErrMax= 8.68D-08  0.00D+00 EMaxC= 1.00D-01 BMatC= 7.51D-12 BMatP= 9.55D-11
 IDIUse=1 WtCom= 1.00D+00 WtEn= 0.00D+00
 Coeff-Com: -0.221D-05 0.359D-05 0.651D-05 0.207D-04-0.244D-04-0.147D-03
 Coeff-Com: -0.411D-03-0.251D-02-0.364D-02-0.942D-02 0.845D-02 0.704D-01
 Coeff-Com:  0.240D+00 0.697D+00
 Coeff:     -0.221D-05 0.359D-05 0.651D-05 0.207D-04-0.244D-04-0.147D-03
 Coeff:     -0.411D-03-0.251D-02-0.364D-02-0.942D-02 0.845D-02 0.704D-01
 Coeff:      0.240D+00 0.697D+00
 Gap=     0.122 Goal=   None    Shift=    0.000
 RMSDP=1.52D-07 MaxDP=2.47D-05 DE=-8.64D-11 OVMax= 2.16D-06

 Cycle  15  Pass 1  IDiag  1:
 RMSU=  6.04D-08    CP:  1.04D+00  5.22D-01  6.25D-01  6.54D-01  6.46D-01
                    CP:  7.27D-01  7.30D-01  6.88D-01  7.82D-01  6.43D-01
                    CP:  9.20D-01  9.97D-01  8.69D-01  8.65D-01
 E= -1071.64486480607     Delta-E=       -0.000000000091 Rises=F Damp=F
 DIIS: error= 4.21D-08 at cycle  15 NSaved=  15.
 NSaved=15 IEnMin=15 EnMin= -1071.64486480607     IErMin=15 ErrMin= 4.21D-08
 ErrMax= 4.21D-08  0.00D+00 EMaxC= 1.00D-01 BMatC= 1.50D-12 BMatP= 7.51D-12
 IDIUse=1 WtCom= 1.00D+00 WtEn= 0.00D+00
 Coeff-Com:  0.248D-06-0.589D-06 0.277D-05 0.867D-05 0.364D-05 0.104D-04
 Coeff-Com: -0.159D-04-0.532D-03-0.996D-03-0.472D-02-0.987D-02-0.667D-02
 Coeff-Com:  0.662D-01 0.372D+00 0.585D+00
 Coeff:      0.248D-06-0.589D-06 0.277D-05 0.867D-05 0.364D-05 0.104D-04
 Coeff:     -0.159D-04-0.532D-03-0.996D-03-0.472D-02-0.987D-02-0.667D-02
 Coeff:      0.662D-01 0.372D+00 0.585D+00
 Gap=     0.122 Goal=   None    Shift=    0.000
 RMSDP=5.17D-08 MaxDP=4.70D-06 DE=-9.09D-11 OVMax= 9.29D-07

 Cycle  16  Pass 1  IDiag  1:
 RMSU=  2.06D-08    CP:  1.04D+00  5.22D-01  6.25D-01  6.54D-01  6.46D-01
                    CP:  7.27D-01  7.30D-01  6.88D-01  7.82D-01  6.43D-01
                    CP:  9.23D-01  1.00D+00  8.98D-01  9.68D-01  8.33D-01
 E= -1071.64486480608     Delta-E=       -0.000000000011 Rises=F Damp=F
 DIIS: error= 1.55D-08 at cycle  16 NSaved=  16.
 NSaved=16 IEnMin=16 EnMin= -1071.64486480608     IErMin=16 ErrMin= 1.55D-08
 ErrMax= 1.55D-08  0.00D+00 EMaxC= 1.00D-01 BMatC= 2.39D-13 BMatP= 1.50D-12
 IDIUse=1 WtCom= 1.00D+00 WtEn= 0.00D+00
 Coeff-Com:  0.526D-06-0.911D-06 0.718D-06 0.160D-05 0.600D-05 0.287D-04
 Coeff-Com:  0.586D-04 0.882D-04 0.938D-04-0.962D-03-0.605D-02-0.134D-01
 Coeff-Com: -0.406D-03 0.940D-01 0.333D+00 0.593D+00
 Coeff:      0.526D-06-0.911D-06 0.718D-06 0.160D-05 0.600D-05 0.287D-04
 Coeff:      0.586D-04 0.882D-04 0.938D-04-0.962D-03-0.605D-02-0.134D-01
 Coeff:     -0.406D-03 0.940D-01 0.333D+00 0.593D+00
 Gap=     0.122 Goal=   None    Shift=    0.000
 RMSDP=1.24D-08 MaxDP=1.01D-06 DE=-1.09D-11 OVMax= 2.64D-07

 Cycle  17  Pass 1  IDiag  1:
 RMSU=  5.33D-09    CP:  1.04D+00  5.22D-01  6.25D-01  6.54D-01  6.46D-01
                    CP:  7.27D-01  7.30D-01  6.88D-01  7.83D-01  6.43D-01
                    CP:  9.23D-01  1.00D+00  9.05D-01  9.72D-01  8.58D-01
                    CP:  7.37D-01
 E= -1071.64486480599     Delta-E=        0.000000000090 Rises=F Damp=F
 DIIS: error= 3.58D-09 at cycle  17 NSaved=  17.
 NSaved=17 IEnMin=16 EnMin= -1071.64486480608     IErMin=17 ErrMin= 3.58D-09
 ErrMax= 3.58D-09  0.00D+00 EMaxC= 1.00D-01 BMatC= 1.08D-14 BMatP= 2.39D-13
 IDIUse=1 WtCom= 1.00D+00 WtEn= 0.00D+00
 Coeff-Com:  0.211D-06-0.327D-06 0.967D-07-0.838D-07 0.211D-05 0.108D-04
 Coeff-Com:  0.258D-04 0.791D-04 0.126D-03 0.273D-04-0.161D-02-0.470D-02
 Coeff-Com: -0.599D-02 0.238D-02 0.786D-01 0.223D+00 0.708D+00
 Coeff:      0.211D-06-0.327D-06 0.967D-07-0.838D-07 0.211D-05 0.108D-04
 Coeff:      0.258D-04 0.791D-04 0.126D-03 0.273D-04-0.161D-02-0.470D-02
 Coeff:     -0.599D-02 0.238D-02 0.786D-01 0.223D+00 0.708D+00
 Gap=     0.122 Goal=   None    Shift=    0.000
 RMSDP=3.06D-09 MaxDP=2.43D-07 DE= 9.00D-11 OVMax= 8.75D-08

 SCF Done:  E(RB3LYP) =  -1071.64486481     A.U. after   17 cycles
            NFock= 17  Conv=0.31D-08     -V/T= 2.0078
 KE= 1.063379643539D+03 PE=-5.225056905829D+03 EE= 1.734291612838D+03
 Leave Link  502 at Mon Dec 17 22:00:17 2018, MaxMem=  2147483648 cpu:            2145.0 elap:             178.9
 (Enter /usr/local/shared/gaussian/x86_64_sse4/16-B01/g16/l801.exe)
 DoSCS=F DFT=T ScalE2(SS,OS)=  1.000000  1.000000
 Range of M.O.s used for correlation:     1   342
 NBasis=   342 NAE=    65 NBE=    65 NFC=     0 NFV=     0
 NROrb=    342 NOA=    65 NOB=    65 NVA=   277 NVB=   277

 **** Warning!!: The largest alpha MO coefficient is  0.95592972D+02

 Leave Link  801 at Mon Dec 17 22:00:17 2018, MaxMem=  2147483648 cpu:               0.6 elap:               0.1
 (Enter /usr/local/shared/gaussian/x86_64_sse4/16-B01/g16/l1101.exe)
 Using compressed storage, NAtomX=    33.
 Will process     34 centers per pass.
 Leave Link 1101 at Mon Dec 17 22:00:18 2018, MaxMem=  2147483648 cpu:              11.4 elap:               1.0
 (Enter /usr/local/shared/gaussian/x86_64_sse4/16-B01/g16/l1102.exe)
 Symmetrizing basis deriv contribution to polar:
 IMax=3 JMax=2 DiffMx= 0.00D+00
 Leave Link 1102 at Mon Dec 17 22:00:18 2018, MaxMem=  2147483648 cpu:               1.5 elap:               0.2
 (Enter /usr/local/shared/gaussian/x86_64_sse4/16-B01/g16/l1110.exe)
 Forming Gx(P) for the SCF density, NAtomX=    33.
 Integral derivatives from FoFJK, PRISM(SPDF).
 Do as many integral derivatives as possible in FoFJK.
 G2DrvN: MDV=    2147480872.
 G2DrvN: will do    34 centers at a time, making    1 passes.
 Calling FoFCou, ICntrl=  3107 FMM=F I1Cent=   0 AccDes= 0.00D+00.
 FoFJK:  IHMeth= 1 ICntrl=    3107 DoSepK=F KAlg= 0 I1Cent=           0 FoldK=F
 IRaf=         0 NMat=       1 IRICut=       1 DoRegI=T DoRafI=F ISym2E= 0 IDoP0=0 IntGTp=1.
 FoFCou: FMM=F IPFlag=           0 FMFlag=      100000 FMFlg1=           0
         NFxFlg=           0 DoJE=F BraDBF=F KetDBF=F FulRan=T
         wScrn=  0.000000 ICntrl=      3107 IOpCl=  0 I1Cent=           0 NGrid=           0
         NMat0=    1 NMatS0=      1 NMatT0=    0 NMatD0=    1 NMtDS0=    0 NMtDT0=    0
 Symmetry not used in FoFCou.
 End of G2Drv F.D. properties file   721 does not exist.
 End of G2Drv F.D. properties file   722 does not exist.
 End of G2Drv F.D. properties file   788 does not exist.
 Leave Link 1110 at Mon Dec 17 22:05:47 2018, MaxMem=  2147483648 cpu:            3936.5 elap:             328.2
 (Enter /usr/local/shared/gaussian/x86_64_sse4/16-B01/g16/l1002.exe)
 Minotr:  Closed shell wavefunction.
          IDoAtm=111111111111111111111111111111111
          Direct CPHF calculation.
          Differentiating once with respect to electric field.
                with respect to dipole field.
          Differentiating once with respect to nuclear coordinates.
          Requested convergence is 1.0D-08 RMS, and 1.0D-07 maximum.
          Secondary convergence is 1.0D-12 RMS, and 1.0D-12 maximum.
          NewPWx=T KeepS1=F KeepF1=F KeepIn=T MapXYZ=F SortEE=F KeepMc=T.
        10206 words used for storage of precomputed grid.
 Keep R1 ints in memory in canonical form, NReq=1740309568.
 FoFCou: FMM=F IPFlag=           0 FMFlag=           0 FMFlg1=           0
         NFxFlg=           0 DoJE=F BraDBF=F KetDBF=F FulRan=T
         wScrn=  0.000000 ICntrl=       600 IOpCl=  0 I1Cent=           0 NGrid=           0
         NMat0=    1 NMatS0=  58653 NMatT0=    0 NMatD0=    1 NMtDS0=    0 NMtDT0=    0
 Symmetry not used in FoFCou.
 Two-electron integral symmetry not used.
          MDV=    2147483648 using IRadAn=       1.
          Solving linear equations simultaneously, MaxMat=       0.
          There are   102 degrees of freedom in the 1st order CPHF.  IDoFFX=6 NUNeed=     3.
     99 vectors produced by pass  0 Test12= 1.80D-14 1.00D-09 XBig12= 2.29D+02 8.90D+00.
 AX will form    99 AO Fock derivatives at one time.
     99 vectors produced by pass  1 Test12= 1.80D-14 1.00D-09 XBig12= 6.90D+01 1.61D+00.
     99 vectors produced by pass  2 Test12= 1.80D-14 1.00D-09 XBig12= 5.49D-01 7.62D-02.
     99 vectors produced by pass  3 Test12= 1.80D-14 1.00D-09 XBig12= 1.84D-03 4.04D-03.
     99 vectors produced by pass  4 Test12= 1.80D-14 1.00D-09 XBig12= 2.98D-06 1.70D-04.
     84 vectors produced by pass  5 Test12= 1.80D-14 1.00D-09 XBig12= 3.06D-09 6.15D-06.
     12 vectors produced by pass  6 Test12= 1.80D-14 1.00D-09 XBig12= 3.15D-12 1.47D-07.
      3 vectors produced by pass  7 Test12= 1.80D-14 1.00D-09 XBig12= 2.98D-15 4.73D-09.
 InvSVY:  IOpt=1 It=  1 EMax= 1.60D-14
 Solved reduced A of dimension   594 with   102 vectors.
 FullF1:  Do perturbations      1 to       3.
 Isotropic polarizability for W=    0.000000      171.49 Bohr**3.
 End of Minotr F.D. properties file   721 does not exist.
 End of Minotr F.D. properties file   722 does not exist.
 End of Minotr F.D. properties file   788 does not exist.
 Leave Link 1002 at Mon Dec 17 22:15:12 2018, MaxMem=  2147483648 cpu:            6778.3 elap:             565.2
 (Enter /usr/local/shared/gaussian/x86_64_sse4/16-B01/g16/l601.exe)
 Copying SCF densities to generalized density rwf, IOpCl= 0 IROHF=0.

 **********************************************************************

            Population analysis using the SCF Density.

 **********************************************************************

 Orbital symmetries:
       Occupied  (A) (A) (A) (A) (A) (A) (A) (A) (A) (A) (A) (A)
                 (A) (A) (A) (A) (A) (A) (A) (A) (A) (A) (A) (A)
                 (A) (A) (A) (A) (A) (A) (A) (A) (A) (A) (A) (A)
                 (A) (A) (A) (A) (A) (A) (A) (A) (A) (A) (A) (A)
                 (A) (A) (A) (A) (A) (A) (A) (A) (A) (A) (A) (A)
                 (A) (A) (A) (A) (A)
       Virtual   (A) (A) (A) (A) (A) (A) (A) (A) (A) (A) (A) (A)
                 (A) (A) (A) (A) (A) (A) (A) (A) (A) (A) (A) (A)
                 (A) (A) (A) (A) (A) (A) (A) (A) (A) (A) (A) (A)
                 (A) (A) (A) (A) (A) (A) (A) (A) (A) (A) (A) (A)
                 (A) (A) (A) (A) (A) (A) (A) (A) (A) (A) (A) (A)
                 (A) (A) (A) (A) (A) (A) (A) (A) (A) (A) (A) (A)
                 (A) (A) (A) (A) (A) (A) (A) (A) (A) (A) (A) (A)
                 (A) (A) (A) (A) (A) (A) (A) (A) (A) (A) (A) (A)
                 (A) (A) (A) (A) (A) (A) (A) (A) (A) (A) (A) (A)
                 (A) (A) (A) (A) (A) (A) (A) (A) (A) (A) (A) (A)
                 (A) (A) (A) (A) (A) (A) (A) (A) (A) (A) (A) (A)
                 (A) (A) (A) (A) (A) (A) (A) (A) (A) (A) (A) (A)
                 (A) (A) (A) (A) (A) (A) (A) (A) (A) (A) (A) (A)
                 (A) (A) (A) (A) (A) (A) (A) (A) (A) (A) (A) (A)
                 (A) (A) (A) (A) (A) (A) (A) (A) (A) (A) (A) (A)
                 (A) (A) (A) (A) (A) (A) (A) (A) (A) (A) (A) (A)
                 (A) (A) (A) (A) (A) (A) (A) (A) (A) (A) (A) (A)
                 (A) (A) (A) (A) (A) (A) (A) (A) (A) (A) (A) (A)
                 (A) (A) (A) (A) (A) (A) (A) (A) (A) (A) (A) (A)
                 (A) (A) (A) (A) (A) (A) (A) (A) (A) (A) (A) (A)
                 (A) (A) (A) (A) (A) (A) (A) (A) (A) (A) (A) (A)
                 (A) (A) (A) (A) (A) (A) (A) (A) (A) (A) (A) (A)
                 (A) (A) (A) (A) (A) (A) (A) (A) (A) (A) (A) (A)
                 (A)
 The electronic state is 1-A.
 Alpha  occ. eigenvalues --  -77.20521 -19.17839 -19.17099 -19.13027 -19.10461
 Alpha  occ. eigenvalues --  -10.24837 -10.24271 -10.23323 -10.23297 -10.23181
 Alpha  occ. eigenvalues --  -10.22449 -10.21571 -10.21323 -10.20672 -10.19215
 Alpha  occ. eigenvalues --  -10.19121  -6.65422  -4.81883  -4.81746  -4.81495
 Alpha  occ. eigenvalues --   -1.06834  -1.02480  -1.00976  -0.95066  -0.89160
 Alpha  occ. eigenvalues --   -0.80696  -0.73864  -0.73271  -0.72227  -0.70924
 Alpha  occ. eigenvalues --   -0.69120  -0.62859  -0.59599  -0.56545  -0.55309
 Alpha  occ. eigenvalues --   -0.53712  -0.51945  -0.50832  -0.49943  -0.48488
 Alpha  occ. eigenvalues --   -0.46608  -0.45409  -0.44800  -0.44128  -0.44005
 Alpha  occ. eigenvalues --   -0.42435  -0.41573  -0.40446  -0.40127  -0.39770
 Alpha  occ. eigenvalues --   -0.39204  -0.38745  -0.37824  -0.36608  -0.35146
 Alpha  occ. eigenvalues --   -0.34664  -0.34155  -0.33363  -0.31849  -0.31071
 Alpha  occ. eigenvalues --   -0.29144  -0.28757  -0.28190  -0.23960  -0.21657
 Alpha virt. eigenvalues --   -0.09449  -0.00707   0.00061   0.01086   0.01191
 Alpha virt. eigenvalues --    0.01647   0.01791   0.02477   0.02809   0.03884
 Alpha virt. eigenvalues --    0.04125   0.04269   0.04368   0.05123   0.06031
 Alpha virt. eigenvalues --    0.06367   0.06984   0.07064   0.08024   0.08241
 Alpha virt. eigenvalues --    0.08564   0.09001   0.09944   0.10116   0.10517
 Alpha virt. eigenvalues --    0.10964   0.11328   0.11950   0.12340   0.12716
 Alpha virt. eigenvalues --    0.13215   0.13501   0.13904   0.14161   0.14551
 Alpha virt. eigenvalues --    0.15061   0.15247   0.15610   0.16140   0.17105
 Alpha virt. eigenvalues --    0.17220   0.17809   0.18379   0.18628   0.18977
 Alpha virt. eigenvalues --    0.19143   0.19459   0.19800   0.20196   0.20380
 Alpha virt. eigenvalues --    0.20688   0.20707   0.21503   0.21898   0.22196
 Alpha virt. eigenvalues --    0.22483   0.23059   0.23461   0.23863   0.24045
 Alpha virt. eigenvalues --    0.24929   0.25284   0.25756   0.26778   0.27028
 Alpha virt. eigenvalues --    0.27639   0.28112   0.28312   0.28752   0.29158
 Alpha virt. eigenvalues --    0.29968   0.30376   0.30557   0.31438   0.31965
 Alpha virt. eigenvalues --    0.32415   0.33361   0.33602   0.34636   0.35031
 Alpha virt. eigenvalues --    0.35415   0.36165   0.36927   0.37402   0.38005
 Alpha virt. eigenvalues --    0.38449   0.39119   0.39616   0.40604   0.41721
 Alpha virt. eigenvalues --    0.42506   0.42678   0.43935   0.44570   0.44695
 Alpha virt. eigenvalues --    0.45112   0.45845   0.48139   0.48509   0.52000
 Alpha virt. eigenvalues --    0.57625   0.61679   0.62910   0.63589   0.64086
 Alpha virt. eigenvalues --    0.66321   0.67036   0.67629   0.68075   0.70167
 Alpha virt. eigenvalues --    0.70715   0.71240   0.72372   0.72971   0.73175
 Alpha virt. eigenvalues --    0.73651   0.74565   0.76448   0.77435   0.78338
 Alpha virt. eigenvalues --    0.79964   0.80348   0.81551   0.82427   0.83611
 Alpha virt. eigenvalues --    0.84119   0.85872   0.86772   0.87205   0.89173
 Alpha virt. eigenvalues --    0.91701   0.92771   0.93927   0.94694   0.95473
 Alpha virt. eigenvalues --    0.95841   0.97334   0.97960   0.98645   0.99465
 Alpha virt. eigenvalues --    0.99816   1.00362   1.02047   1.02619   1.03129
 Alpha virt. eigenvalues --    1.04804   1.05588   1.07483   1.08697   1.09258
 Alpha virt. eigenvalues --    1.11872   1.12524   1.13151   1.13985   1.14484
 Alpha virt. eigenvalues --    1.16506   1.17137   1.19147   1.20051   1.24563
 Alpha virt. eigenvalues --    1.25114   1.26324   1.27191   1.28144   1.28601
 Alpha virt. eigenvalues --    1.29831   1.31862   1.32312   1.35400   1.36082
 Alpha virt. eigenvalues --    1.36707   1.38187   1.39733   1.40834   1.42159
 Alpha virt. eigenvalues --    1.43703   1.45775   1.45980   1.48382   1.49920
 Alpha virt. eigenvalues --    1.51130   1.52687   1.53906   1.56168   1.58814
 Alpha virt. eigenvalues --    1.59830   1.62271   1.64255   1.64671   1.65074
 Alpha virt. eigenvalues --    1.67146   1.69460   1.72331   1.73159   1.74824
 Alpha virt. eigenvalues --    1.76950   1.79090   1.81763   1.84037   1.84795
 Alpha virt. eigenvalues --    1.85265   1.87880   1.88759   1.92110   1.92641
 Alpha virt. eigenvalues --    1.94478   1.94573   1.96669   1.98451   2.01193
 Alpha virt. eigenvalues --    2.02025   2.02472   2.04935   2.06574   2.07521
 Alpha virt. eigenvalues --    2.08837   2.09207   2.10602   2.10953   2.12159
 Alpha virt. eigenvalues --    2.14385   2.15853   2.17238   2.18300   2.19130
 Alpha virt. eigenvalues --    2.22547   2.24467   2.25752   2.26429   2.27962
 Alpha virt. eigenvalues --    2.29897   2.32915   2.34662   2.36363   2.37569
 Alpha virt. eigenvalues --    2.38540   2.39690   2.39790   2.40944   2.43352
 Alpha virt. eigenvalues --    2.47768   2.52208   2.53336   2.60875   2.61136
 Alpha virt. eigenvalues --    2.64209   2.65372   2.66956   2.70741   2.71564
 Alpha virt. eigenvalues --    2.73392   2.74832   2.80411   2.82718   2.85831
 Alpha virt. eigenvalues --    2.88108   2.92225   2.96426   2.97075   3.00872
 Alpha virt. eigenvalues --    3.21636   3.59224   4.19701   4.24549   4.26851
 Alpha virt. eigenvalues --    4.27904   4.31301   4.35748   4.36796   4.39836
 Alpha virt. eigenvalues --    4.40973   4.45344   4.53187   4.56753   4.63123
 Alpha virt. eigenvalues --    4.67899   4.79397
          Condensed to atoms (all electrons):
               1          2          3          4          5          6
     1  H    0.528502  -0.000001   0.004894  -0.000147  -0.000000  -0.010868
     2  H   -0.000001   0.495771   0.000377  -0.001019   0.000003  -0.002110
     3  C    0.004894   0.000377  21.353326  -5.212789   0.305657 -12.790051
     4  C   -0.000147  -0.001019  -5.212789  13.263373   0.052334   0.822042
     5  H   -0.000000   0.000003   0.305657   0.052334   0.494039  -0.055660
     6  C   -0.010868  -0.002110 -12.790051   0.822042  -0.055660  20.862145
     7  H   -0.000000  -0.030637  -0.000192  -0.000038  -0.000012   0.002481
     8  H    0.000007  -0.035723  -0.002163   0.000529  -0.000005  -0.000039
     9  C    0.000035  -0.000061   0.171275   0.951517   0.017796  -0.715375
    10  O    0.001411  -0.000014   0.122504   0.072927   0.008150  -0.082369
    11  P   -0.011274  -0.000176   0.460792  -0.476373  -0.005744  -0.329799
    12  O    0.000144  -0.054767  -0.171369   0.075466  -0.001317   0.159239
    13  O   -0.056012  -0.000756   0.258374  -0.028299  -0.000142  -0.390816
    14  O   -0.000081   0.007482   0.052939   0.059102   0.000586  -0.230248
    15  C    0.001894   0.393216  -0.013136   0.019191   0.000404   0.014892
    16  C    0.405559  -0.000647  -0.126492   0.002945  -0.000556   0.087276
    17  H   -0.031079  -0.000005   0.003921   0.000047   0.000000   0.002480
    18  H   -0.031748   0.000000  -0.027053   0.000259  -0.000000   0.046967
    19  C   -0.000070   0.000113  -0.205132  -1.581226  -0.027444   1.314552
    20  H    0.000000  -0.000002   0.013443   0.010038  -0.000120  -0.025732
    21  C    0.000026   0.000020   1.635346  -2.145106  -0.014424  -1.628337
    22  C   -0.000004   0.000150  -0.721485   0.921624   0.015238  -0.201247
    23  H    0.000000   0.000000   0.021657  -0.045289  -0.000012   0.014700
    24  H   -0.000000   0.000000  -0.040213   0.380561   0.003044  -0.000667
    25  H   -0.000000   0.000000   0.086058  -0.115587  -0.000116  -0.008880
    26  C    0.000168  -0.001102   0.129354  -0.228177  -0.011035  -0.161641
    27  H   -0.000000  -0.000000  -0.066935   0.093557  -0.000280   0.007939
    28  H   -0.000000  -0.000000  -0.028770  -0.004472   0.000003   0.032895
    29  C   -0.000019   0.001292   0.092057  -0.035901   0.005640   0.237828
    30  H    0.000000  -0.000000   0.029598   0.000211  -0.000007  -0.036967
    31  H   -0.000000  -0.000000   0.021609  -0.126860   0.000051  -0.020705
    32  H    0.000000   0.000000   0.001485  -0.090480   0.001168  -0.002370
    33  H    0.000000  -0.000000   0.051485  -0.219457   0.000076  -0.025719
               7          8          9         10         11         12
     1  H   -0.000000   0.000007   0.000035   0.001411  -0.011274   0.000144
     2  H   -0.030637  -0.035723  -0.000061  -0.000014  -0.000176  -0.054767
     3  C   -0.000192  -0.002163   0.171275   0.122504   0.460792  -0.171369
     4  C   -0.000038   0.000529   0.951517   0.072927  -0.476373   0.075466
     5  H   -0.000012  -0.000005   0.017796   0.008150  -0.005744  -0.001317
     6  C    0.002481  -0.000039  -0.715375  -0.082369  -0.329799   0.159239
     7  H    0.518128  -0.031297  -0.000015  -0.000006  -0.021081  -0.057210
     8  H   -0.031297   0.505801  -0.000019   0.000007  -0.016001  -0.052169
     9  C   -0.000015  -0.000019   8.509770   0.183702  -0.019617  -0.007473
    10  O   -0.000006   0.000007   0.183702   8.257129  -0.083546   0.000744
    11  P   -0.021081  -0.016001  -0.019617  -0.083546  14.011351  -0.383564
    12  O   -0.057210  -0.052169  -0.007473   0.000744  -0.383564   8.934006
    13  O    0.000251   0.005217   0.008480   0.065621  -0.085277   0.060362
    14  O   -0.000879   0.000427   0.009924   0.008994   0.544946  -0.105376
    15  C    0.414429   0.406340  -0.001407   0.002661  -0.236184   0.113730
    16  C    0.000246   0.000105  -0.003145  -0.016085  -0.196465   0.031325
    17  H   -0.000000   0.000002   0.000186  -0.000531  -0.001441   0.000802
    18  H    0.000000   0.000001  -0.000514  -0.005936  -0.028161  -0.001410
    19  C    0.000018  -0.000016  -2.540312  -0.171546   0.034443  -0.000210
    20  H   -0.000000   0.000000   0.020593   0.000661  -0.002093   0.000210
    21  C   -0.000120  -0.000001  -0.195900   0.053518   0.080323  -0.012531
    22  C   -0.000046  -0.000035   0.308877   0.047945  -0.103173   0.001131
    23  H    0.000000  -0.000000  -0.006527  -0.000915   0.001388  -0.000016
    24  H   -0.000000  -0.000000  -0.012904   0.003351  -0.000644  -0.000546
    25  H   -0.000000   0.000000   0.039132   0.000455   0.000372  -0.000005
    26  C   -0.000048   0.000306  -1.322546  -0.020460  -0.073926   0.037117
    27  H   -0.000000  -0.000000   0.031125   0.000222   0.000543  -0.000053
    28  H    0.000000   0.000000   0.171741  -0.009924  -0.000071   0.000012
    29  C    0.000257  -0.000279   0.635423  -0.053492   0.063229  -0.033501
    30  H    0.000000  -0.000000   0.029132  -0.001317  -0.004275   0.000057
    31  H   -0.000000   0.000000  -0.001686   0.000369  -0.000323  -0.000003
    32  H   -0.000000  -0.000000  -0.004672  -0.000177   0.000183  -0.000093
    33  H   -0.000000  -0.000000  -0.010333  -0.000192   0.000428   0.000026
              13         14         15         16         17         18
     1  H   -0.056012  -0.000081   0.001894   0.405559  -0.031079  -0.031748
     2  H   -0.000756   0.007482   0.393216  -0.000647  -0.000005   0.000000
     3  C    0.258374   0.052939  -0.013136  -0.126492   0.003921  -0.027053
     4  C   -0.028299   0.059102   0.019191   0.002945   0.000047   0.000259
     5  H   -0.000142   0.000586   0.000404  -0.000556   0.000000  -0.000000
     6  C   -0.390816  -0.230248   0.014892   0.087276   0.002480   0.046967
     7  H    0.000251  -0.000879   0.414429   0.000246  -0.000000   0.000000
     8  H    0.005217   0.000427   0.406340   0.000105   0.000002   0.000001
     9  C    0.008480   0.009924  -0.001407  -0.003145   0.000186  -0.000514
    10  O    0.065621   0.008994   0.002661  -0.016085  -0.000531  -0.005936
    11  P   -0.085277   0.544946  -0.236184  -0.196465  -0.001441  -0.028161
    12  O    0.060362  -0.105376   0.113730   0.031325   0.000802  -0.001410
    13  O    8.853710  -0.078305   0.004475   0.079916  -0.055550  -0.053183
    14  O   -0.078305   8.528832  -0.034124  -0.057255   0.008818  -0.002250
    15  C    0.004475  -0.034124   5.418594   0.009583  -0.000888  -0.000904
    16  C    0.079916  -0.057255   0.009583   5.427483   0.384092   0.414905
    17  H   -0.055550   0.008818  -0.000888   0.384092   0.495163  -0.033785
    18  H   -0.053183  -0.002250  -0.000904   0.414905  -0.033785   0.490418
    19  C   -0.013115  -0.023201  -0.001952  -0.001551   0.000200   0.000079
    20  H    0.000027   0.000963   0.000096   0.000059  -0.000000   0.000000
    21  C    0.005832   0.008720  -0.002779  -0.003569   0.000031  -0.000416
    22  C    0.000243   0.026455   0.002585   0.003333  -0.000123   0.000392
    23  H    0.000002  -0.000040  -0.000034  -0.000007   0.000000  -0.000000
    24  H    0.000044  -0.000259  -0.000153  -0.000403   0.000000  -0.000000
    25  H    0.000001   0.000005  -0.000005  -0.000021   0.000000   0.000000
    26  C   -0.011947  -0.020453   0.006768   0.001552   0.000255  -0.000175
    27  H   -0.000006  -0.000027  -0.000006   0.000001   0.000000  -0.000000
    28  H   -0.000018  -0.000037   0.000007   0.000015  -0.000000   0.000000
    29  C    0.012401  -0.007755  -0.000808   0.000456  -0.000685  -0.000156
    30  H    0.000130   0.000572   0.000100   0.000451  -0.000001  -0.000007
    31  H   -0.000001   0.000001   0.000001  -0.000003  -0.000000   0.000000
    32  H    0.000000  -0.000006  -0.000054  -0.000007   0.000000  -0.000000
    33  H    0.000004   0.000002   0.000005   0.000014  -0.000000  -0.000000
              19         20         21         22         23         24
     1  H   -0.000070   0.000000   0.000026  -0.000004   0.000000  -0.000000
     2  H    0.000113  -0.000002   0.000020   0.000150   0.000000   0.000000
     3  C   -0.205132   0.013443   1.635346  -0.721485   0.021657  -0.040213
     4  C   -1.581226   0.010038  -2.145106   0.921624  -0.045289   0.380561
     5  H   -0.027444  -0.000120  -0.014424   0.015238  -0.000012   0.003044
     6  C    1.314552  -0.025732  -1.628337  -0.201247   0.014700  -0.000667
     7  H    0.000018  -0.000000  -0.000120  -0.000046   0.000000  -0.000000
     8  H   -0.000016   0.000000  -0.000001  -0.000035  -0.000000  -0.000000
     9  C   -2.540312   0.020593  -0.195900   0.308877  -0.006527  -0.012904
    10  O   -0.171546   0.000661   0.053518   0.047945  -0.000915   0.003351
    11  P    0.034443  -0.002093   0.080323  -0.103173   0.001388  -0.000644
    12  O   -0.000210   0.000210  -0.012531   0.001131  -0.000016  -0.000546
    13  O   -0.013115   0.000027   0.005832   0.000243   0.000002   0.000044
    14  O   -0.023201   0.000963   0.008720   0.026455  -0.000040  -0.000259
    15  C   -0.001952   0.000096  -0.002779   0.002585  -0.000034  -0.000153
    16  C   -0.001551   0.000059  -0.003569   0.003333  -0.000007  -0.000403
    17  H    0.000200  -0.000000   0.000031  -0.000123   0.000000   0.000000
    18  H    0.000079   0.000000  -0.000416   0.000392  -0.000000  -0.000000
    19  C    9.313574  -0.008587   0.087333  -1.024247   0.022216  -0.015832
    20  H   -0.008587   0.491758  -0.002301  -0.000787   0.000730  -0.000004
    21  C    0.087333  -0.002301   7.889762  -0.232580   0.014333  -0.068863
[...]
 10247,0.00023943,0.00010874,0.00031263,-0.00158855,0.00067785,0.006003
 85,-0.01131946,-0.00659186,0.00026464,0.00067778,0.00089983,0.03582886
 ,0.00000453,-0.00000481,-0.00000479,0.00000547,-0.00000151,0.00000696,
 0.00119771,-0.00022187,-0.00018593,-0.00029712,-0.00005143,-0.00012211
 ,0.00002992,0.00003443,-0.00002180,-0.00031881,0.00100027,0.00018467,0
 .00000569,0.00000818,0.00000118,0.00000997,0.00000262,0.00000206,-0.01
 008229,-0.24171531,-0.14899706,-0.00091502,-0.00063467,0.00009043,-0.0
 0042984,0.00001751,-0.00002106,0.00011309,0.00007101,0.00004020,0.0001
 0358,-0.00005886,-0.00001980,0.00010149,-0.00007562,0.00011468,-0.0000
 4484,-0.00002187,-0.00003362,-0.00001882,0.00006551,0.00000817,0.00000
 356,-0.00000311,0.00000706,-0.00000888,0.00000181,-0.00000615,-0.00406
 541,-0.00828496,-0.01682164,-0.00037650,0.00023390,0.00048531,-0.00007
 981,-0.00014223,0.00022349,0.00162042,-0.00298206,0.00118108,0.0000263
 7,-0.00019317,-0.00045938,-0.00015377,-0.00008366,0.00048169,0.0003085
 9,0.00038673,0.00091415,0.00263582,0.00759780,0.00353680,0.00012796,-0
 .00008487,-0.00120031,0.00848684,0.24569854,0.00000537,0.00000455,0.00
 000482,0.00000357,-0.00000016,-0.00000138,-0.00120715,0.00072954,0.000
 37628,0.00087486,-0.00020563,0.00003122,-0.00000407,0.00005295,-0.0001
 0301,0.00075886,-0.00176996,-0.00060984,0.00000595,0.00000072,0.000002
 72,-0.00000241,0.00000002,0.00000294,-0.02408005,-0.14785961,-0.164259
 55,0.00273806,0.00298011,0.00013143,0.00022475,0.00002571,-0.00009824,
 0.00002327,0.00004614,0.00005135,-0.00005665,0.00002838,0.00003515,-0.
 00007651,0.00002761,0.00007916,0.00002604,0.00003176,0.00000396,0.0000
 1515,-0.00004366,-0.00001185,-0.00000623,-0.00000212,-0.00000840,-0.00
 000054,0.00000834,0.00001838,0.00016745,0.00626876,0.00898478,0.000797
 94,-0.00092433,-0.00068219,-0.00011267,-0.00000734,-0.00003400,-0.0020
 2863,0.00105506,-0.00033699,0.00004219,0.00017553,0.00033430,0.0000167
 6,-0.00023128,-0.00024604,0.00029580,-0.00023230,-0.00033127,0.0014481
 1,-0.02111359,-0.00649738,0.00003274,-0.00007072,0.00051635,0.02444276
 ,0.16063031,0.16595470,0.00008330,-0.00006104,-0.00001357,0.00008852,0
 .00001697,0.00009020,0.00727838,-0.00157077,-0.00590395,0.00204107,0.0
 0204499,0.00311070,-0.00041132,0.00015969,0.00072771,-0.00659865,0.011
 17308,0.00332206,0.00004875,0.00007159,0.00002371,0.00010211,0.0000186
 5,0.00001740,0.00579090,-0.01460486,-0.01260984,0.00056638,-0.00792609
 ,-0.00235821,-0.00347558,0.00097621,-0.00247846,0.00119849,0.00056018,
 0.00079054,0.00111946,-0.00067116,0.00001539,0.00009167,-0.00077431,0.
 00152519,-0.00047275,-0.00023091,-0.00028156,-0.00016278,0.00051549,0.
 00000904,0.00007164,-0.00005593,0.00004227,-0.00008684,0.00005484,-0.0
 0001335,-0.01869015,-0.00995933,-0.02119668,-0.13442393,-0.04881738,-0
 .13042038,-0.00084675,-0.00130664,-0.00009026,-0.16482425,0.04962430,-
 0.05270397,-0.02499142,0.00812445,-0.01074294,-0.00130748,-0.00102896,
 0.00072470,-0.00103661,-0.00017317,0.00004706,-0.09116198,0.05415408,-
 0.00431587,0.00147275,-0.00132340,0.00481565,0.00068190,0.00296802,-0.
 00540615,0.42517245,0.00001742,-0.00007090,-0.00004498,0.00004620,-0.0
 0000993,0.00005511,0.01276835,-0.00270587,-0.02099897,0.01255786,0.002
 79087,-0.00389487,-0.00145209,-0.00133844,0.00370875,-0.00653053,0.025
 40452,0.00903497,0.00000617,0.00003951,-0.00000028,0.00005938,0.000010
 16,0.00000224,-0.02811466,-0.00470861,-0.06347963,-0.01462490,-0.01938
 226,-0.00099841,-0.00324589,0.00021082,-0.00062851,0.00048955,0.000311
 54,0.00025522,0.00104403,-0.00062473,-0.00047378,0.00101104,-0.0005553
 5,0.00039515,-0.00035754,-0.00026397,-0.00014257,-0.00008945,0.0006113
 0,0.00018618,0.00002688,-0.00005361,0.00004293,-0.00003739,-0.00007451
 ,-0.00005782,-0.00761575,-0.00811656,0.00701319,-0.05338091,-0.0938446
 6,-0.08983873,-0.00179908,-0.00128098,0.00193496,0.05302445,-0.1015644
 4,0.01391560,-0.00286330,0.00342703,-0.00272797,-0.00041754,-0.0002562
 7,0.00032189,0.00217911,-0.00213602,-0.00461556,0.06964655,-0.30739446
 ,-0.08824425,0.02892537,-0.00780411,0.01080411,-0.00016135,-0.00023465
 ,-0.00072369,-0.06195265,0.52824782,-0.00002126,0.00000578,0.00001518,
 -0.00009289,0.00002752,-0.00005551,-0.00588409,-0.00316496,0.01313025,
 -0.00707801,-0.00471262,-0.00248370,0.00045280,0.00014054,-0.00065974,
 0.00264486,-0.00784770,-0.00450420,-0.00004197,-0.00003881,-0.00000022
 ,-0.00002144,-0.00000146,-0.00003905,-0.00955518,-0.03220022,-0.027782
 72,0.00055227,0.00445205,0.00185905,0.00181516,0.00027709,0.00172023,-
 0.00044701,-0.00053746,-0.00044552,-0.00039752,0.00014731,-0.00014948,
 -0.00036353,-0.00031507,-0.00127828,0.00019876,0.00003554,0.00019705,0
 .00000225,-0.00007227,-0.00003604,0.00001480,0.00003442,-0.00000277,0.
 00000941,0.00000786,-0.00003669,-0.03275169,0.00526507,-0.03613520,-0.
 12972987,-0.08583120,-0.22008381,0.00044433,-0.00015735,-0.00063633,-0
 .04604723,0.01035092,-0.08843954,0.01328688,-0.00702822,0.00788130,0.0
 0002440,0.00136475,-0.00074927,0.00054796,-0.00319944,-0.00462996,-0.0
 0552282,-0.12373785,-0.13394343,0.00258433,-0.00076318,0.00009293,-0.0
 0469481,-0.00030703,-0.00288553,0.22055517,0.23882285,0.49272951,0.000
 01402,0.00001146,-0.00002342,0.00000104,-0.00001441,-0.00000123,-0.000
 17659,-0.00026691,0.00032694,-0.00152371,0.00065744,0.00020199,0.00005
 789,0.00001276,-0.00005361,0.00030635,0.00023223,0.00002304,0.00000372
 ,0.00001442,-0.00000040,0.00001065,-0.00000321,0.00000234,-0.00485831,
 0.01015877,0.00127974,0.00006296,-0.00035893,0.00047025,0.00001296,-0.
 00068646,0.00077185,0.00004628,0.00026713,-0.00009687,0.00006307,-0.00
 000244,-0.00019413,-0.00011128,0.00052345,-0.00037974,-0.00008740,-0.0
 0004699,-0.00004071,0.00000494,0.00004017,0.00005464,-0.00006056,0.000
 00297,0.00000194,-0.00000132,-0.00001016,0.00002370,0.00295895,0.00178
 930,-0.00395048,-0.00100711,-0.00064247,0.00152229,0.00042300,0.000273
 52,-0.00043539,0.00328989,0.00172503,-0.00280373,0.00061026,-0.0005898
 8,0.00037400,-0.00000538,-0.00002462,-0.00000630,0.00017019,-0.0001916
 0,-0.00004416,-0.19590597,0.14404859,-0.06657937,-0.00047732,0.0002067
 4,-0.00016956,-0.00097622,-0.00097648,0.00106378,0.00271315,0.00046636
 ,-0.00056174,0.19454941,0.00001115,-0.00001225,-0.00001526,-0.00000627
 ,-0.00001816,-0.00000771,-0.00052677,-0.00005256,0.00024397,-0.0009070
 6,0.00066143,0.00018879,0.00004761,0.00000872,-0.00003919,0.00049678,-
 0.00071849,-0.00031590,0.00000360,0.00001631,-0.00000329,0.00001076,-0
 .00000312,-0.00000031,-0.00412803,0.00706082,-0.00072051,0.00006555,0.
 00077682,0.00002659,-0.00011856,-0.00094497,0.00146401,0.00001434,0.00
 031689,-0.00015790,0.00014867,-0.00011138,-0.00040822,0.00071906,0.000
 79437,-0.00075941,-0.00009282,-0.00005775,-0.00002363,-0.00003979,0.00
 018249,0.00004720,-0.00001014,0.00001181,0.00002267,-0.00000396,-0.000
 01432,-0.00001477,0.00218310,0.00166675,-0.00384194,-0.00135948,0.0000
 8796,0.00088500,0.00026884,0.00012711,-0.00028424,0.00121832,-0.002421
 91,-0.00277601,0.00052164,-0.00041358,0.00013910,-0.00003577,-0.000063
 30,0.00005203,0.00001829,-0.00024280,0.00014859,0.13916410,-0.18827133
 ,0.04639561,0.00077279,-0.00004056,0.00016384,-0.00070879,-0.00041621,
 0.00119807,0.01909297,-0.00815838,0.00872346,-0.15672533,0.19007932,-0
 .00002164,-0.00002522,0.00000196,-0.00000450,0.00000328,-0.00000515,0.
 00062836,-0.00018561,-0.00031564,0.00024739,-0.00071498,0.00008494,0.0
 0004793,-0.00000141,-0.00002281,-0.00005839,0.00169622,0.00060361,-0.0
 0000683,-0.00000916,-0.00000381,-0.00000680,0.00000131,-0.00000395,-0.
 01570249,0.01893928,-0.00329705,-0.00069850,-0.00143730,0.00014583,0.0
 0021695,0.00049291,0.00007575,-0.00010136,-0.00013360,-0.00006680,0.00
 000730,-0.00007670,-0.00009069,-0.00022604,-0.00023743,-0.00033892,0.0
 0004835,0.00000504,0.00004819,0.00002434,0.00008464,0.00004337,0.00003
 632,0.00000308,0.00001519,0.00000750,-0.00000528,-0.00006728,-0.005741
 37,-0.00289086,-0.00141562,0.00087663,0.00146299,-0.00107152,-0.000165
 35,-0.00016882,0.00012752,-0.00254230,-0.00521265,0.00109045,-0.000593
 83,0.00054287,-0.00030298,-0.00002497,0.00005425,-0.00000494,-0.000644
 98,0.00158588,-0.00017637,-0.06039906,0.04710043,-0.06914569,0.0012535
 2,-0.00052072,0.00068545,0.00185835,0.00026002,-0.00042018,0.01226752,
 -0.01033038,0.00725196,0.06927691,-0.05032543,0.06644583,-0.00002387,0
 .00002030,0.00001135,-0.00001267,0.00000280,-0.00001371,-0.00087900,0.
 00460098,0.00005662,-0.01609620,-0.00562144,-0.00571309,0.00019459,-0.
 00008435,0.00028007,-0.00084391,-0.00088206,-0.00122958,-0.00000976,-0
 .00001963,-0.00000648,-0.00002467,0.00000014,-0.00000293,0.00011272,0.
 00049927,0.00026095,0.00024758,0.00040709,0.00020258,0.00063314,0.0002
 1099,0.00033295,-0.00025389,-0.00020756,-0.00010466,-0.00042194,0.0001
 6551,0.00012885,-0.00021567,0.00005086,-0.00020169,0.00012742,0.000054
 17,0.00006427,0.00003413,-0.00017143,-0.00003013,0.00000035,0.00001695
 ,-0.00000766,0.00001853,0.00000928,-0.00000682,0.00015951,-0.00176479,
 0.00043244,0.00005600,-0.00000569,0.00000685,-0.26161261,-0.06381349,-
 0.07684263,0.00031246,0.00000176,-0.00012923,0.00006660,0.00003346,-0.
 00010170,0.00019736,0.00004753,0.00048217,0.00086656,0.00048965,-0.000
 30458,0.00027125,-0.00008229,0.00021237,-0.00005832,0.00007333,0.00001
 345,-0.00002777,-0.00000944,-0.00001395,-0.00036058,-0.00016823,0.0001
 6871,-0.00000742,-0.00000955,0.00006517,0.28543260,0.00000096,-0.00001
 227,-0.00000359,0.00000055,-0.00000136,-0.00000188,0.00172885,-0.00445
 216,0.00017700,0.02522903,0.00677343,0.01117411,0.00015232,0.00006524,
 0.00026221,0.00164948,0.00025829,0.00055986,0.00001121,0.00000838,0.00
 000577,-0.00000067,-0.00000022,0.00000291,0.00010525,0.00004394,-0.000
 30702,-0.00026886,0.00027697,0.00010307,-0.00008545,-0.00040775,-0.000
 21625,0.00000906,0.00014110,0.00000792,0.00025007,-0.00000842,-0.00004
 521,0.00004907,0.00003233,0.00010317,-0.00000100,-0.00000786,-0.000004
 59,0.00000107,0.00006107,0.00001804,-0.00000029,-0.00000550,-0.0000011
 7,-0.00000735,-0.00000870,-0.00000202,0.00142665,0.00158976,-0.0001536
 2,-0.00005999,-0.00002252,0.00003071,-0.06540762,-0.06804705,-0.024438
 96,-0.00027647,-0.00020377,0.00001203,0.00000255,0.00010201,0.00002728
 ,-0.00058980,0.00094671,-0.00042654,-0.00048815,-0.00035023,0.00009657
 ,-0.00011277,0.00016049,0.00004501,-0.00008806,0.00005086,0.00002784,0
 .00000102,0.00001987,-0.00000453,0.00031774,-0.00001081,-0.00005529,-0
 .00002980,-0.00000692,-0.00000151,0.06919412,0.07360213,-0.00000220,0.
 00000476,0.00000241,0.00000041,0.00000014,-0.00000103,-0.00063154,0.00
 129112,0.00107542,-0.00574651,-0.00184946,-0.00350450,0.00029479,0.000
 10068,-0.00000745,-0.00052973,0.00019934,-0.00001870,0.00000122,-0.000
 00175,-0.00000311,-0.00000596,0.00000061,-0.00000119,0.00026154,0.0001
 3502,0.00018452,-0.00002427,-0.00013649,-0.00005235,0.00004046,0.00009
 430,-0.00004493,-0.00004383,-0.00002119,0.00000193,-0.00008201,0.00001
 890,0.00003385,-0.00004872,0.00002356,-0.00006871,0.00001698,0.0000062
 8,0.00001418,0.00000506,-0.00002907,-0.00000210,0.00000034,0.00000146,
 -0.00000159,0.00000212,0.00000338,0.00000147,-0.00096742,-0.00045658,0
 .00000014,0.00003458,-0.00002643,0.00002251,-0.07626684,-0.02360163,-0
 .07701121,0.00028921,-0.00027341,-0.00031738,-0.00000400,0.00018707,-0
 .00008531,0.00045390,0.00020919,0.00026666,0.00033586,0.00062099,-0.00
 004516,0.00008380,-0.00018140,0.00002836,-0.00015354,0.00003399,0.0001
 4743,-0.00000851,-0.00003109,0.00001768,-0.00007529,0.00003614,0.00001
 034,0.00000859,-0.00000860,0.00002852,0.08547000,0.02453746,0.07814302
 ,-0.00000145,-0.00000402,-0.00000198,-0.00000080,0.00000166,0.00000158
 ,0.00159494,0.00056616,0.00120212,-0.00293267,0.01057858,0.01637726,-0
 .00044487,-0.00040465,-0.00026101,0.00016326,0.00018123,0.00025047,-0.
 00001319,-0.00000720,-0.00000239,0.00000467,-0.00000213,-0.00000004,0.
 00002297,-0.00028410,0.00012047,-0.00063631,-0.00011859,-0.00044283,0.
 00003175,0.00021026,0.00006269,0.00000350,-0.00012721,-0.00002046,0.00
 002376,-0.00004357,-0.00003263,-0.00001256,-0.00003944,-0.00002092,-0.
 00000821,-0.00000163,-0.00000292,0.00000293,0.00002340,0.00000802,0.00
 000002,-0.00000202,-0.00000018,0.00000140,-0.00001096,-0.00000470,0.00
 015200,-0.00060644,-0.00009831,-0.00002854,-0.00001160,0.00000713,-0.0
 5253057,0.01592924,0.02177138,0.00015206,0.00024568,-0.00001302,-0.000
 00480,-0.00021886,0.00001242,-0.00147689,0.00303177,-0.00136405,0.0000
 1500,0.00006846,-0.00017061,-0.00004278,-0.00000082,-0.00004189,0.0004
 4505,-0.00004865,-0.00029066,0.00000644,-0.00000994,0.00000998,0.00009
 800,0.00000055,0.00007126,0.00000809,0.00000321,-0.00001585,0.00483857
 ,-0.01770498,-0.02507290,0.05251601,0.00000445,-0.00000083,-0.00000048
 ,0.00000348,-0.00000277,0.00000284,-0.00246068,0.00103141,-0.00010054,
 0.00292592,-0.01665527,-0.02306950,0.00063264,0.00038457,0.00021971,0.
 00014548,-0.00074556,-0.00016617,0.00000505,0.00000547,0.00000014,0.00
 000230,-0.00000017,0.00000162,-0.00006188,0.00018944,-0.00005556,0.000
 63976,0.00027689,0.00066954,-0.00010032,-0.00006587,-0.00014897,0.0000
 5430,0.00005774,0.00004153,0.00004837,-0.00000930,0.00001349,0.0000236
 4,-0.00000872,0.00007104,-0.00001954,0.00000117,-0.00001788,-0.0000098
 4,0.00001097,-0.00000465,0.00000245,-0.00000115,0.00000210,-0.00000270
 ,0.00000555,0.00000201,0.00001168,0.00052002,-0.00125733,-0.00006432,0
 .00000915,0.00000965,0.01626335,-0.13766023,-0.12246261,-0.00040167,-0
 .00111193,0.00010737,-0.00003993,0.00033039,0.00003039,0.00299951,-0.0
 0349469,0.00225955,-0.00001572,-0.00008058,0.00005147,-0.00027224,0.00
 026942,0.00004304,0.00022242,0.00034022,0.00147827,-0.00003752,0.00013
 774,-0.00005312,0.00069465,0.00033735,0.00004786,-0.00003144,0.0000419
 7,0.00006255,0.00088344,-0.00554453,-0.00693057,-0.02080776,0.14974512
 ,0.00000139,-0.00000186,-0.00000389,0.00000504,-0.00000286,0.00000395,
 -0.00013363,-0.00013689,0.00063917,-0.00037359,0.00482965,0.00658579,0
 .00045598,-0.00018028,0.00011523,0.00036833,0.00006997,0.00002814,0.00
 001245,0.00001347,0.00000238,0.00000390,0.00000334,0.00000331,-0.00034
 574,0.00012850,0.00003909,-0.00018351,0.00024750,0.00010911,-0.0001931
 5,-0.00022066,-0.00008939,0.00006628,0.00015730,0.00003563,0.00008625,
 0.00000572,0.00000255,0.00007999,0.00003047,0.00004613,-0.00003537,-0.
 00003919,-0.00002525,-0.00001207,0.00002079,0.00000340,-0.00000072,-0.
 00000227,0.00000260,-0.00000356,0.00000228,-0.00000081,0.00036004,-0.0
 0090872,0.00024647,-0.00001789,-0.00002221,0.00001782,0.02250095,-0.12
 392871,-0.21661009,-0.00037342,0.00053709,-0.00080584,0.00004895,-0.00
 009354,0.00007283,-0.00084927,0.00160869,0.00080762,0.00009595,0.00005
 729,-0.00008265,-0.00005636,0.00012648,0.00004181,-0.00011219,0.001596
 89,-0.00120209,0.00004877,0.00000494,-0.00000980,0.00008816,0.00018181
 ,0.00015985,0.00001275,0.00002631,0.00003234,0.00130910,-0.00460997,-0
 .00808763,-0.02424220,0.13474504,0.23687070,0.00000097,-0.00000327,-0.
 00000294,0.00000308,-0.00000020,0.00000380,0.00066463,0.00076589,-0.00
 030355,0.00677227,0.01048595,-0.01450139,-0.00003896,-0.00017407,-0.00
 014200,0.00052732,-0.00034917,0.00035671,-0.00000336,0.00000047,-0.000
 00292,0.00000367,0.00000030,-0.00000093,0.00097413,-0.00017214,-0.0000
 2189,-0.00014573,0.00018419,-0.00009576,-0.00005431,0.00005001,-0.0000
 1982,0.00002302,-0.00003050,0.00002004,0.00004938,-0.00004081,-0.00002
 141,0.00003063,-0.00002758,0.00002344,-0.00002666,-0.00001479,-0.00001
 299,-0.00000366,0.00003704,0.00000841,-0.00000052,-0.00000399,0.000001
 43,0.00000006,-0.00000653,-0.00000270,-0.00174106,0.00250699,-0.001082
 50,0.00000436,-0.00001822,0.00000440,-0.10091454,-0.06425001,0.0855440
 2,-0.00015951,0.00017560,0.00025972,-0.00000332,-0.00001387,-0.0000470
 8,0.00070282,-0.00080975,0.00022144,0.00033897,0.00029046,0.00014520,-
 0.00020969,-0.00009645,-0.00044281,-0.00006705,-0.00013058,0.00000993,
 -0.00005167,0.00003795,0.00000163,0.00023218,0.00054196,-0.00016230,-0
 .00010825,-0.00008843,0.00009173,-0.01272107,-0.01500774,0.02236444,-0
 .00194680,-0.00123732,0.00138837,0.10786867,0.00001469,-0.00000229,-0.
 00000123,0.00000202,-0.00000137,0.00000131,-0.00104039,0.00053787,-0.0
 0086673,-0.01030683,-0.01423936,0.01868485,0.00009540,0.00006702,0.000
 33853,-0.00008311,-0.00004392,-0.00034956,0.00000336,0.00000751,0.0000
 0524,0.00001087,-0.00000168,0.00000212,-0.00177327,0.00087770,0.000428
 97,0.00029305,0.00001045,-0.00005533,-0.00024464,-0.00010422,0.0001287
 5,0.00010651,0.00010047,-0.00000081,0.00009518,-0.00002744,-0.00008941
 ,0.00011116,0.00003550,-0.00001076,-0.00004199,-0.00001273,-0.00001300
 ,-0.00001060,0.00002679,0.00000614,-0.00000552,-0.00000102,0.00000005,
 -0.00000850,0.00000058,0.00001240,0.00276520,-0.00524194,0.00121435,0.
 00002684,0.00000123,0.00000996,-0.06388749,-0.12245407,0.10089539,0.00
 016672,-0.00008392,-0.00076631,0.00000652,0.00000160,0.00000998,-0.000
 71157,0.00048147,-0.00050698,0.00043983,0.00035203,-0.00032279,0.00061
 069,0.00031568,0.00077473,0.00010128,0.00019545,0.00024648,0.00011383,
 -0.00006504,-0.00002151,-0.00011129,-0.00080140,0.00026712,0.00017078,
 0.00013522,-0.00001766,-0.00392169,-0.00504250,0.00604329,0.00961438,0
 .01168701,-0.01424639,0.06739860,0.13328932,-0.00000512,-0.00000067,0.
 00000084,0.00000177,-0.00000120,0.00000279,0.00030406,-0.00009466,0.00
 080158,0.00248889,0.00262390,-0.00479787,-0.00016077,-0.00003165,-0.00
 055005,-0.00013757,0.00006754,0.00030468,-0.00001244,-0.00001161,-0.00
 001161,-0.00000339,0.00000021,-0.00000228,0.00041834,-0.00025850,-0.00
 000648,-0.00017684,-0.00014837,-0.00017701,0.00015656,0.00028786,-0.00
 003542,-0.00005889,-0.00018780,0.00001156,-0.00005213,-0.00004026,0.00
 001901,-0.00007329,-0.00006874,0.00000716,0.00001174,0.00002035,0.0000
 0409,0.00000644,0.00000884,0.00000308,0.00000307,-0.00000190,-0.000000
 11,0.00000357,-0.00000657,-0.00000636,-0.00107165,0.00025968,0.0004166
 0,-0.00004511,0.00001186,-0.00001168,0.08487776,0.10133399,-0.18543833
 ,-0.00035936,-0.00029466,0.00022083,-0.00002444,0.00009838,-0.00000582
 ,-0.00023444,-0.00007676,0.00065441,0.00019233,-0.00004032,0.00007236,
 -0.00030510,0.00007699,-0.00027090,0.00010121,0.00026096,0.00036601,-0
 .00004323,0.00005858,-0.00000956,0.00043802,0.00048931,-0.00007065,-0.
 00007393,-0.00002291,0.00006849,-0.00478907,-0.00691879,0.00927391,0.0
 1220474,0.01440816,-0.01894847,-0.09358171,-0.11180122,0.19811520\\-0.
 00000045,-0.00000009,-0.00000113,0.00000035,-0.00000197,0.00000074,-0.
 00000003,0.00000061,0.00000039,-0.00000003,0.00000147,0.00000018,0.000
 00047,0.00000008,0.00000115,0.00000018,0.00000011,-0.00000033,0.000000
 89,-0.00000165,0.00000210,0.00000021,-0.00000120,0.00000137,-0.0000000
 2,-0.00000024,-0.00000115,-0.00000032,0.00000083,-0.00000077,0.0000003
 6,-0.00000078,0.00000054,0.00000025,-0.00000104,0.00000095,-0.00000034
 ,-0.00000030,-0.00000005,-0.00000031,-0.00000119,-0.00000108,0.0000006
 9,-0.00000153,0.00000179,-0.00000059,0.00000031,-0.00000194,-0.0000005
 4,-0.00000112,-0.00000097,-0.00000048,0.00000041,-0.00000139,-0.000000
 56,0.00000116,-0.00000030,-0.00000013,-0.00000146,-0.00000002,0.000000
 35,0.00000098,0.00000097,-0.00000070,0.00000038,-0.00000008,0.00000012
 ,-0.00000036,-0.00000035,0.00000003,0.00000183,0.00000002,0.00000005,0
 .00000132,-0.00000046,-0.00000100,-0.00000035,-0.00000136,0.00000030,-
 0.00000046,0.00000071,-0.00000065,0.00000104,-0.00000165,0.00000044,-0
 .00000139,-0.00000029,-0.00000047,-0.00000097,-0.00000154,0.00000061,0
 .00000219,0.00000087,0.00000066,0.00000126,0.00000165,0.00000065,0.000
 00211,0.00000142\\\@


 REALITY IS FOR PEOPLE WHO CAN'T FACE SCIENCE FICTION.
 Job cpu time:       0 days  5 hours  7 minutes 17.5 seconds.
 Elapsed time:       0 days  0 hours 25 minutes 38.8 seconds.
 File lengths (MBytes):  RWF=    433 Int=      0 D2E=      0 Chk=      9 Scr=      1
 Normal termination of Gaussian 16 at Mon Dec 17 22:22:49 2018.
